version 3
run General-0-20250518-17:57:53-31967
attr configname General
attr datetime 20250518-17:57:53
attr datetimef 20250518-175753
attr experiment General
attr inifile omnetpp.ini
attr iterationvars ""
attr iterationvarsd ""
attr iterationvarsf ""
attr measurement ""
attr network Network
attr processid 31967
attr repetition 0
attr replication #0
attr resultdir results
attr runnumber 0
attr seedset 0
config network Network
config sim-time-limit 200s
config "Network.node[{0, 2}].app.interArrivalTime" exponential(1)
config "Network.node[{0, 2}].app.packetByteSize" 125000
config "Network.node[{0, 2}].app.destination" 5

vector 0 Network.node[0].lnk[0] "Lnk use" ETV
vector 1 Network.node[0].lnk[0] "Buffer Size" ETV
vector 2 Network.node[2].lnk[0] "Lnk use" ETV
vector 3 Network.node[2].lnk[0] "Buffer Size" ETV
vector 4 Network.node[7].lnk[1] "Lnk use" ETV
vector 5 Network.node[7].lnk[0] "Lnk use" ETV
vector 6 Network.node[7].lnk[0] "Buffer Size" ETV
vector 7 Network.node[1].lnk[1] "Lnk use" ETV
vector 8 Network.node[1].lnk[0] "Lnk use" ETV
vector 9 Network.node[1].lnk[0] "Buffer Size" ETV
vector 10 Network.node[6].lnk[1] "Lnk use" ETV
vector 11 Network.node[6].lnk[0] "Lnk use" ETV
vector 12 Network.node[6].lnk[0] "Buffer Size" ETV
vector 13 Network.node[0].lnk[1] "Lnk use" ETV
vector 14 Network.node[5].lnk[1] "Lnk use" ETV
vector 15 Network.node[5].app "Delay Source 0" ETV
vector 16 Network.node[5].app "HopCount Source 0" ETV
vector 17 Network.node[5].app "Delay Source 2" ETV
vector 18 Network.node[5].app "HopCount Source 2" ETV
0	3	0.898560388484	1
0	7	1.821783519955	1
0	37	3.773328855839	1
0	47	3.859804212075	1
0	59	4.324377342509	1
0	72	4.859804212075	1
0	79	5.301383768902	1
0	101	5.786511932624	1
0	107	6.139671071762	1
0	110	6.198055740855	1
0	114	6.52596940626	1
0	142	7.564128706924	1
0	164	8.564128706924	1
0	192	9.512968020783	1
0	218	10.363172325843	1
0	235	11.081864138406	1
0	244	11.363172325843	1
0	264	11.834538251719	1
0	276	12.363172325843	1
0	282	12.673971104619	1
0	305	13.363172325843	1
0	328	14.363172325843	1
0	331	14.482340368894	1
0	334	14.556025724359	1
0	351	14.967603720602	1
0	354	15.058764746726	1
0	369	15.363172325843	1
0	389	16.103377255034	1
0	398	16.363172325843	1
0	421	17.363172325843	1
0	447	18.363172325843	1
0	470	19.25354718371	1
0	479	19.363172325843	1
0	502	20.363172325843	1
0	522	21.294439399622	1
0	531	21.363172325843	1
0	548	21.9361485723	1
0	557	22.363172325843	1
0	575	23.363172325843	1
0	578	23.541388129362	1
0	613	25.155390204255	1
0	633	25.890354625445	1
0	655	27.026293567155	1
0	664	27.047509410774	1
0	667	27.152167976593	1
0	689	28.047509410774	1
0	701	28.427395678817	1
0	704	28.582125359317	1
0	725	29.182974844391	1
0	733	29.352960017784	1
0	756	30.20440671874	1
0	773	30.774324697878	1
0	777	31.20440671874	1
0	780	31.512151989634	1
0	783	31.624098150267	1
0	804	32.159663870495	1
0	807	32.466944222648	1
0	813	32.673147504678	1
0	855	33.971148391769	1
0	858	34.008437689302	1
0	868	34.617520112485	1
0	871	34.762798139777	1
0	888	34.781766708978	1
0	892	34.971148391769	1
0	900	35.173537519655	1
0	929	36.101097919552	1
0	932	36.134918458721	1
0	938	36.386360390796	1
0	955	36.874917440104	1
0	964	37.101097919552	1
0	990	38.101097919552	1
0	1013	39.101097919552	1
0	1019	39.752832461382	1
0	1042	40.101097919552	1
0	1045	40.3505785382	1
0	1065	40.796097033251	1
0	1074	41.101097919552	1
0	1077	41.370629439992	1
0	1103	42.101097919552	1
0	1135	43.101097919552	1
0	1138	43.696980501686	1
0	1161	44.101097919552	1
0	1178	44.795892969237	1
0	1187	45.101097919552	1
0	1204	45.854727100725	1
0	1213	46.101097919552	1
0	1240	46.965324546412	1
0	1244	47.101097919552	1
0	1247	47.10335323484	1
0	1275	48.492395924631	1
0	1284	48.540707172454	1
0	1304	48.944497984856	1
0	1319	49.540707172454	1
0	1339	49.788925778384	1
0	1348	50.540707172454	1
0	1374	51.540707172454	1
0	1397	52.540707172454	1
0	1420	53.540707172454	1
0	1443	54.24342262456	1
0	1446	54.477724143336	1
0	1455	54.540707172454	1
0	1478	55.485743388756	1
0	1487	55.540707172454	1
0	1510	56.540707172454	1
0	1513	56.54448610385	1
0	1530	57.416401957476	1
0	1539	57.540707172454	1
0	1542	57.708482490743	1
0	1559	58.243547167826	1
0	1568	58.540707172454	1
0	1585	58.871488748817	1
0	1588	59.51526975042	1
0	1597	59.540707172454	1
0	1614	59.795546758899	1
0	1623	60.540707172454	1
0	1630	60.77241083297	1
0	1653	61.184912062892	1
0	1657	61.540707172454	1
0	1682	62.252984260042	1
0	1685	62.401696529294	1
0	1697	62.632680586152	1
0	1723	63.632680586152	1
0	1740	63.908331862567	1
0	1743	64.368345820307	1
0	1752	64.632680586152	1
0	1769	65.454615201185	1
0	1778	65.632680586152	1
0	1810	66.632680586152	1
0	1830	67.174946858902	1
0	1839	67.632680586152	1
0	1856	68.294761224656	1
0	1859	68.395795999965	1
0	1871	68.632680586152	1
0	1894	69.632680586152	1
0	1917	70.632680586152	1
0	1940	71.632680586152	1
0	1957	71.969384372309	1
0	1965	72.632680586152	1
0	2007	74.074705673101	1
0	2010	74.132032599525	1
0	2019	74.293319858336	1
0	2036	75.060511096426	1
0	2045	75.293319858336	1
0	2048	75.660457983067	1
0	2066	76.293319858336	1
0	2083	77.004703255219	1
0	2086	77.024893383365	1
0	2089	77.064869682423	1
0	2096	77.64774807129	1
0	2153	79.400167332569	1
0	2179	80.400167332569	1
0	2208	81.400167332569	1
0	2211	81.539318194135	1
0	2228	82.074202569892	1
0	2237	82.400167332569	1
0	2266	83.400167332569	1
0	2292	84.400167332569	1
0	2295	84.578114352977	1
0	2321	85.400167332569	1
0	2324	85.410957869043	1
0	2353	86.400167332569	1
0	2382	87.400167332569	1
0	2385	87.41419839155	1
0	2388	87.512848699968	1
0	2411	88.400167332569	1
0	2434	89.400167332569	1
0	2454	90.053153207927	1
0	2457	90.139923690267	1
0	2466	90.400167332569	1
0	2501	91.400167332569	1
0	2527	92.400167332569	1
0	2544	92.789179618943	1
0	2547	92.930510332504	1
0	2556	93.400167332569	1
0	2573	93.972290986683	1
0	2585	94.400167332569	1
0	2602	95.232224796792	1
0	2611	95.400167332569	1
0	2614	95.573878963818	1
0	2631	95.88139668758	1
0	2637	96.083747126147	1
0	2646	96.400167332569	1
0	2666	96.966876168106	1
0	2669	96.987188626902	1
0	2672	97.167440878887	1
0	2684	97.400167332569	1
0	2716	98.400167332569	1
0	2733	98.9331819513	1
0	2745	99.400167332569	1
0	2765	99.776264983448	1
0	2774	100.400167332569	1
0	2797	101.105022857198	1
0	2806	101.400167332569	1
0	2809	101.672927010678	1
0	2826	101.958947983186	1
0	2835	102.400167332569	1
0	2852	103.36997239248	1
0	2861	103.400167332569	1
0	2878	104.228365360309	1
0	2890	104.400167332569	1
0	2893	104.732709166897	1
0	2919	105.400167332569	1
0	2945	106.400167332569	1
0	2962	106.996442742758	1
0	2968	107.248862735649	1
0	2977	107.400167332569	1
0	3000	108.400167332569	1
0	3026	109.400167332569	1
0	3043	110.301144392533	1
0	3055	110.400167332569	1
0	3072	110.893768419985	1
0	3084	111.400167332569	1
0	3107	112.400167332569	1
0	3110	112.767228299842	1
0	3133	113.400167332569	1
0	3150	113.969466867089	1
0	3153	114.092993514451	1
0	3162	114.400167332569	1
0	3165	114.446013647725	1
0	3191	115.400167332569	1
0	3208	115.902832206289	1
0	3217	116.400167332569	1
0	3220	116.433554702906	1
0	3240	116.938573450661	1
0	3249	117.400167332569	1
0	3278	118.400167332569	1
0	3298	119.068072846729	1
0	3310	119.400167332569	1
0	3333	120.400167332569	1
0	3350	121.202903296712	1
0	3359	121.400167332569	1
0	3376	122.382286230357	1
0	3385	122.400167332569	1
0	3405	123.270147640794	1
0	3414	123.400167332569	1
0	3434	124.34798252493	1
0	3443	124.400167332569	1
0	3463	125.109850296226	1
0	3466	125.371907537901	1
0	3475	125.400167332569	1
0	3498	126.400167332569	1
0	3501	126.404704548546	1
0	3518	126.907015346807	1
0	3527	127.400167332569	1
0	3530	127.458411336941	1
0	3552	128.400167332569	1
0	3555	128.422864902435	1
0	3583	129.066969610758	1
0	3589	129.425896826628	1
0	3598	129.649252527223	1
0	3618	130.505217025284	1
0	3627	130.649252527223	1
0	3647	130.847816649982	1
0	3659	131.649252527223	1
0	3676	131.810191705753	1
0	3679	132.370152775827	1
0	3688	132.649252527223	1
0	3726	133.649252527223	1
0	3746	134.477600380777	1
0	3755	134.649252527223	1
0	3775	135.371329459083	1
0	3790	135.649252527223	1
0	3807	136.225409194726	1
0	3819	136.649252527223	1
0	3845	137.649252527223	1
0	3874	138.649252527223	1
0	3900	139.649252527223	1
0	3903	139.697944674008	1
0	3920	139.850238299262	1
0	3923	140.30841118322	1
0	3926	140.410731798073	1
0	3935	140.649252527223	1
0	3952	140.983193349501	1
0	3964	141.649252527223	1
0	3987	142.649252527223	1
0	4016	143.649252527223	1
0	4039	144.649252527223	1
0	4056	145.121003110011	1
0	4068	145.649252527223	1
0	4085	145.891079969557	1
0	4088	146.485153467881	1
0	4094	146.59076611151	1
0	4106	146.649252527223	1
0	4132	147.649252527223	1
0	4158	148.649252527223	1
0	4178	149.110048241593	1
0	4187	149.649252527223	1
0	4210	150.649252527223	1
0	4227	150.94978102667	1
0	4230	151.111651113382	1
0	4239	151.649252527223	1
0	4262	152.649252527223	1
0	4279	153.461828403133	1
0	4288	153.649252527223	1
0	4311	154.649252527223	1
0	4328	155.487737220236	1
0	4331	155.526020133121	1
0	4340	155.649252527223	1
0	4346	155.703345708266	1
0	4375	156.649252527223	1
0	4378	156.659312132188	1
0	4404	157.649252527223	1
0	4421	158.169135587797	1
0	4433	158.649252527223	1
0	4456	159.649252527223	1
0	4473	160.171122083323	1
0	4485	160.649252527223	1
0	4488	160.70112496146	1
0	4505	160.851915971654	1
0	4517	161.374786001742	1
0	4526	161.649252527223	1
0	4543	162.570224568024	1
0	4552	162.649252527223	1
0	4569	163.037497134434	1
0	4572	163.641796206282	1
0	4581	163.649252527223	1
0	4598	164.186653334427	1
0	4607	164.649252527223	1
0	4630	165.466987538239	1
0	4639	165.649252527223	1
0	4656	165.921899383031	1
0	4665	166.649252527223	1
0	4694	167.649252527223	1
0	4717	168.649252527223	1
0	4743	169.631859974935	1
0	4752	169.649252527223	1
0	4769	170.078112795454	1
0	4778	170.649252527223	1
0	4804	171.649252527223	1
0	4830	172.649252527223	1
0	4847	172.962724547556	1
0	4850	173.151019522775	1
0	4853	173.565632065434	1
0	4862	173.649252527223	1
0	4882	174.301763165421	1
0	4888	174.35763321831	1
0	4891	174.580772426411	1
0	4900	174.649252527223	1
0	4923	174.77860193387	1
0	4938	175.649252527223	1
0	4958	176.357014655976	1
0	4967	176.649252527223	1
0	4984	176.780671757333	1
0	4993	177.649252527223	1
0	5019	178.649252527223	1
0	5042	179.649252527223	1
0	5045	179.66521604574	1
0	5065	180.602354763463	1
0	5074	180.649252527223	1
0	5091	181.510318790788	1
0	5094	181.542675595433	1
0	5103	181.649252527223	1
0	5135	182.649252527223	1
0	5152	183.0735068217	1
0	5155	183.125189727495	1
0	5167	183.649252527223	1
0	5184	183.986113364176	1
0	5187	184.257781434518	1
0	5196	184.649252527223	1
0	5222	185.649252527223	1
0	5245	186.649252527223	1
0	5271	187.649252527223	1
0	5297	188.649252527223	1
0	5317	189.136914322512	1
0	5326	189.649252527223	1
0	5343	189.903993977084	1
0	5355	190.649252527223	1
0	5381	191.649252527223	1
0	5398	191.901165944574	1
0	5410	192.649252527223	1
0	5427	193.210951315936	1
0	5430	193.584837811839	1
0	5439	193.649252527223	1
0	5456	194.392817865238	1
0	5465	194.649252527223	1
0	5482	194.900682987925	1
0	5485	195.139435860773	1
0	5488	195.374960434192	1
0	5494	195.626559047305	1
0	5503	195.649252527223	1
0	5523	195.873418316104	1
0	5532	196.649252527223	1
0	5535	196.716397091518	1
0	5558	197.649252527223	1
0	5575	198.061744524752	1
0	5583	198.649252527223	1
0	5586	198.663423511276	1
1	3	0.898560388484	1
1	4	0.898560388484	0
1	7	1.821783519955	1
1	12	1.898560388484	0
1	37	3.773328855839	1
1	38	3.773328855839	0
1	47	3.859804212075	1
1	59	4.324377342509	2
1	64	4.773328855839	1
1	72	4.859804212075	2
1	79	5.301383768902	3
1	89	5.773328855839	2
1	101	5.786511932624	3
1	107	6.139671071762	4
1	110	6.198055740855	5
1	114	6.52596940626	6
1	120	6.773328855839	5
1	142	7.564128706924	6
1	143	7.773328855839	5
1	164	8.564128706924	6
1	168	8.773328855839	5
1	192	9.512968020783	6
1	193	9.773328855839	5
1	218	10.363172325843	6
1	219	10.773328855839	5
1	235	11.081864138406	6
1	244	11.363172325843	7
1	248	11.773328855839	6
1	264	11.834538251719	7
1	276	12.363172325843	8
1	282	12.673971104619	9
1	283	12.773328855839	8
1	305	13.363172325843	9
1	306	13.773328855839	8
1	328	14.363172325843	9
1	331	14.482340368894	10
1	334	14.556025724359	11
1	335	14.773328855839	10
1	351	14.967603720602	11
1	354	15.058764746726	12
1	369	15.363172325843	13
1	373	15.773328855839	12
1	389	16.103377255034	13
1	398	16.363172325843	14
1	399	16.773328855839	13
1	421	17.363172325843	14
1	425	17.773328855839	13
1	447	18.363172325843	14
1	448	18.773328855839	13
1	470	19.25354718371	14
1	479	19.363172325843	15
1	480	19.773328855839	14
1	502	20.363172325843	15
1	503	20.773328855839	14
1	522	21.294439399622	15
1	531	21.363172325843	16
1	532	21.773328855839	15
1	548	21.9361485723	16
1	557	22.363172325843	17
1	558	22.773328855839	16
1	575	23.363172325843	17
1	578	23.541388129362	18
1	579	23.773328855839	17
1	593	24.773328855839	16
1	613	25.155390204255	17
1	617	25.773328855839	16
1	633	25.890354625445	17
1	639	26.773328855839	16
1	655	27.026293567155	17
1	664	27.047509410774	18
1	667	27.152167976593	19
1	672	27.773328855839	18
1	689	28.047509410774	19
1	701	28.427395678817	20
1	704	28.582125359317	21
1	705	28.773328855839	20
1	725	29.182974844391	21
1	733	29.352960017784	22
1	734	29.773328855839	21
1	756	30.20440671874	22
1	757	30.773328855839	21
1	773	30.774324697878	22
1	777	31.20440671874	23
1	780	31.512151989634	24
1	783	31.624098150267	25
1	784	31.773328855839	24
1	804	32.159663870495	25
1	807	32.466944222648	26
1	813	32.673147504678	27
1	814	32.773328855839	26
1	833	33.773328855839	25
1	855	33.971148391769	26
1	858	34.008437689302	27
1	868	34.617520112485	28
1	871	34.762798139777	29
1	872	34.773328855839	28
1	888	34.781766708978	29
1	892	34.971148391769	30
1	900	35.173537519655	31
1	907	35.773328855839	30
1	929	36.101097919552	31
1	932	36.134918458721	32
1	938	36.386360390796	33
1	939	36.773328855839	32
1	955	36.874917440104	33
1	964	37.101097919552	34
1	968	37.773328855839	33
1	990	38.101097919552	34
1	991	38.773328855839	33
1	1013	39.101097919552	34
1	1019	39.752832461382	35
1	1020	39.773328855839	34
1	1042	40.101097919552	35
1	1045	40.3505785382	36
1	1049	40.773328855839	35
1	1065	40.796097033251	36
1	1074	41.101097919552	37
1	1077	41.370629439992	38
1	1081	41.773328855839	37
1	1103	42.101097919552	38
1	1104	42.773328855839	37
1	1135	43.101097919552	38
1	1138	43.696980501686	39
1	1139	43.773328855839	38
1	1161	44.101097919552	39
1	1162	44.773328855839	38
1	1178	44.795892969237	39
1	1187	45.101097919552	40
1	1188	45.773328855839	39
1	1204	45.854727100725	40
1	1213	46.101097919552	41
1	1221	46.773328855839	40
1	1240	46.965324546412	41
1	1244	47.101097919552	42
1	1247	47.10335323484	43
1	1256	47.773328855839	42
1	1275	48.492395924631	43
1	1284	48.540707172454	44
1	1288	48.773328855839	43
1	1304	48.944497984856	44
1	1319	49.540707172454	45
1	1323	49.773328855839	44
1	1339	49.788925778384	45
1	1348	50.540707172454	46
1	1352	50.773328855839	45
1	1374	51.540707172454	46
1	1375	51.773328855839	45
1	1397	52.540707172454	46
1	1398	52.773328855839	45
1	1420	53.540707172454	46
1	1421	53.773328855839	45
1	1443	54.24342262456	46
1	1446	54.477724143336	47
1	1455	54.540707172454	48
1	1456	54.773328855839	47
1	1478	55.485743388756	48
1	1487	55.540707172454	49
1	1488	55.773328855839	48
1	1510	56.540707172454	49
1	1513	56.54448610385	50
1	1514	56.773328855839	49
1	1530	57.416401957476	50
1	1539	57.540707172454	51
1	1542	57.708482490743	52
1	1543	57.773328855839	51
1	1559	58.243547167826	52
1	1568	58.540707172454	53
1	1569	58.773328855839	52
1	1585	58.871488748817	53
1	1588	59.51526975042	54
1	1597	59.540707172454	55
1	1598	59.773328855839	54
1	1614	59.795546758899	55
1	1623	60.540707172454	56
1	1630	60.77241083297	57
1	1631	60.773328855839	56
1	1653	61.184912062892	57
1	1657	61.540707172454	58
1	1663	61.773328855839	57
1	1682	62.252984260042	58
1	1685	62.401696529294	59
1	1697	62.632680586152	60
1	1701	62.773328855839	59
1	1723	63.632680586152	60
1	1724	63.773328855839	59
1	1740	63.908331862567	60
1	1743	64.368345820307	61
1	1752	64.632680586152	62
1	1753	64.773328855839	61
1	1769	65.454615201185	62
1	1778	65.632680586152	63
1	1788	65.773328855839	62
1	1810	66.632680586152	63
1	1814	66.773328855839	62
1	1830	67.174946858902	63
1	1839	67.632680586152	64
1	1840	67.773328855839	63
1	1856	68.294761224656	64
1	1859	68.395795999965	65
1	1871	68.632680586152	66
1	1872	68.773328855839	65
1	1894	69.632680586152	66
1	1895	69.773328855839	65
1	1917	70.632680586152	66
1	1918	70.773328855839	65
1	1940	71.632680586152	66
1	1941	71.773328855839	65
1	1957	71.969384372309	66
1	1965	72.632680586152	67
1	1966	72.773328855839	66
1	1991	73.773328855839	65
1	2007	74.074705673101	66
1	2010	74.132032599525	67
1	2019	74.293319858336	68
1	2020	74.773328855839	67
1	2036	75.060511096426	68
1	2045	75.293319858336	69
1	2048	75.660457983067	70
1	2049	75.773328855839	69
1	2066	76.293319858336	70
1	2067	76.773328855839	69
1	2083	77.004703255219	70
1	2086	77.024893383365	71
1	2089	77.064869682423	72
1	2096	77.64774807129	73
1	2100	77.773328855839	72
1	2128	78.773328855839	71
1	2153	79.400167332569	72
1	2157	79.773328855839	71
1	2179	80.400167332569	72
1	2183	80.773328855839	71
1	2208	81.400167332569	72
1	2211	81.539318194135	73
1	2212	81.773328855839	72
1	2228	82.074202569892	73
1	2237	82.400167332569	74
1	2238	82.773328855839	73
1	2266	83.400167332569	74
1	2270	83.773328855839	73
1	2292	84.400167332569	74
1	2295	84.578114352977	75
1	2299	84.773328855839	74
1	2321	85.400167332569	75
1	2324	85.410957869043	76
1	2331	85.773328855839	75
1	2353	86.400167332569	76
1	2357	86.773328855839	75
1	2382	87.400167332569	76
1	2385	87.41419839155	77
1	2388	87.512848699968	78
1	2389	87.773328855839	77
1	2411	88.400167332569	78
1	2412	88.773328855839	77
1	2434	89.400167332569	78
1	2438	89.773328855839	77
1	2454	90.053153207927	78
1	2457	90.139923690267	79
1	2466	90.400167332569	80
1	2470	90.773328855839	79
1	2501	91.400167332569	80
1	2502	91.773328855839	79
1	2527	92.400167332569	80
1	2528	92.773328855839	79
1	2544	92.789179618943	80
1	2547	92.930510332504	81
1	2556	93.400167332569	82
1	2557	93.773328855839	81
1	2573	93.972290986683	82
1	2585	94.400167332569	83
1	2586	94.773328855839	82
1	2602	95.232224796792	83
1	2611	95.400167332569	84
1	2614	95.573878963818	85
1	2615	95.773328855839	84
1	2631	95.88139668758	85
1	2637	96.083747126147	86
1	2646	96.400167332569	87
1	2650	96.773328855839	86
1	2666	96.966876168106	87
1	2669	96.987188626902	88
1	2672	97.167440878887	89
1	2684	97.400167332569	90
1	2685	97.773328855839	89
1	2716	98.400167332569	90
1	2717	98.773328855839	89
1	2733	98.9331819513	90
1	2745	99.400167332569	91
1	2749	99.773328855839	90
1	2765	99.776264983448	91
1	2774	100.400167332569	92
1	2778	100.773328855839	91
1	2797	101.105022857198	92
1	2806	101.400167332569	93
1	2809	101.672927010678	94
1	2810	101.773328855839	93
1	2826	101.958947983186	94
1	2835	102.400167332569	95
1	2836	102.773328855839	94
1	2852	103.36997239248	95
1	2861	103.400167332569	96
1	2862	103.773328855839	95
1	2878	104.228365360309	96
1	2890	104.400167332569	97
1	2893	104.732709166897	98
1	2894	104.773328855839	97
1	2919	105.400167332569	98
1	2920	105.773328855839	97
1	2945	106.400167332569	98
1	2946	106.773328855839	97
1	2962	106.996442742758	98
1	2968	107.248862735649	99
1	2977	107.400167332569	100
1	2978	107.773328855839	99
1	3000	108.400167332569	100
1	3001	108.773328855839	99
1	3026	109.400167332569	100
1	3027	109.773328855839	99
1	3043	110.301144392533	100
1	3055	110.400167332569	101
1	3056	110.773328855839	100
1	3072	110.893768419985	101
1	3084	111.400167332569	102
1	3085	111.773328855839	101
1	3107	112.400167332569	102
1	3110	112.767228299842	103
1	3111	112.773328855839	102
1	3133	113.400167332569	103
1	3134	113.773328855839	102
1	3150	113.969466867089	103
1	3153	114.092993514451	104
1	3162	114.400167332569	105
1	3165	114.446013647725	106
1	3166	114.773328855839	105
1	3191	115.400167332569	106
1	3192	115.773328855839	105
1	3208	115.902832206289	106
1	3217	116.400167332569	107
1	3220	116.433554702906	108
1	3224	116.773328855839	107
1	3240	116.938573450661	108
1	3249	117.400167332569	109
1	3253	117.773328855839	108
1	3278	118.400167332569	109
1	3279	118.773328855839	108
1	3298	119.068072846729	109
1	3310	119.400167332569	110
1	3311	119.773328855839	109
1	3333	120.400167332569	110
1	3334	120.773328855839	109
1	3350	121.202903296712	110
1	3359	121.400167332569	111
1	3360	121.773328855839	110
1	3376	122.382286230357	111
1	3385	122.400167332569	112
1	3389	122.773328855839	111
1	3405	123.270147640794	112
1	3414	123.400167332569	113
1	3415	123.773328855839	112
1	3434	124.34798252493	113
1	3443	124.400167332569	114
1	3447	124.773328855839	113
1	3463	125.109850296226	114
1	3466	125.371907537901	115
1	3475	125.400167332569	116
1	3476	125.773328855839	115
1	3498	126.400167332569	116
1	3501	126.404704548546	117
1	3502	126.773328855839	116
1	3518	126.907015346807	117
1	3527	127.400167332569	118
1	3530	127.458411336941	119
1	3535	127.773328855839	118
1	3552	128.400167332569	119
1	3555	128.422864902435	120
1	3567	128.773328855839	119
1	3583	129.066969610758	120
1	3589	129.425896826628	121
1	3598	129.649252527223	122
1	3599	129.773328855839	121
1	3618	130.505217025284	122
1	3627	130.649252527223	123
1	3628	130.773328855839	122
1	3647	130.847816649982	123
1	3659	131.649252527223	124
1	3660	131.773328855839	123
1	3676	131.810191705753	124
1	3679	132.370152775827	125
1	3688	132.649252527223	126
1	3692	132.773328855839	125
1	3726	133.649252527223	126
1	3727	133.773328855839	125
1	3746	134.477600380777	126
1	3755	134.649252527223	127
1	3759	134.773328855839	126
1	3775	135.371329459083	127
1	3790	135.649252527223	128
1	3791	135.773328855839	127
1	3807	136.225409194726	128
1	3819	136.649252527223	129
1	3820	136.773328855839	128
1	3845	137.649252527223	129
1	3846	137.773328855839	128
1	3874	138.649252527223	129
1	3875	138.773328855839	128
1	3900	139.649252527223	129
1	3903	139.697944674008	130
1	3904	139.773328855839	129
1	3920	139.850238299262	130
1	3923	140.30841118322	131
1	3926	140.410731798073	132
1	3935	140.649252527223	133
1	3936	140.773328855839	132
1	3952	140.983193349501	133
1	3964	141.649252527223	134
1	3965	141.773328855839	133
1	3987	142.649252527223	134
1	3988	142.773328855839	133
1	4016	143.649252527223	134
1	4017	143.773328855839	133
1	4039	144.649252527223	134
1	4040	144.773328855839	133
1	4056	145.121003110011	134
1	4068	145.649252527223	135
1	4069	145.773328855839	134
1	4085	145.891079969557	135
1	4088	146.485153467881	136
1	4094	146.59076611151	137
1	4106	146.649252527223	138
1	4107	146.773328855839	137
1	4132	147.649252527223	138
1	4133	147.773328855839	137
1	4158	148.649252527223	138
1	4159	148.773328855839	137
1	4178	149.110048241593	138
1	4187	149.649252527223	139
1	4188	149.773328855839	138
1	4210	150.649252527223	139
1	4211	150.773328855839	138
1	4227	150.94978102667	139
1	4230	151.111651113382	140
1	4239	151.649252527223	141
1	4240	151.773328855839	140
1	4262	152.649252527223	141
1	4263	152.773328855839	140
1	4279	153.461828403133	141
1	4288	153.649252527223	142
1	4289	153.773328855839	141
1	4311	154.649252527223	142
1	4312	154.773328855839	141
1	4328	155.487737220236	142
1	4331	155.526020133121	143
1	4340	155.649252527223	144
1	4346	155.703345708266	145
1	4347	155.773328855839	144
1	4375	156.649252527223	145
1	4378	156.659312132188	146
1	4382	156.773328855839	145
1	4404	157.649252527223	146
1	4405	157.773328855839	145
1	4421	158.169135587797	146
1	4433	158.649252527223	147
1	4434	158.773328855839	146
1	4456	159.649252527223	147
1	4457	159.773328855839	146
1	4473	160.171122083323	147
1	4485	160.649252527223	148
1	4488	160.70112496146	149
1	4489	160.773328855839	148
1	4505	160.851915971654	149
1	4517	161.374786001742	150
1	4526	161.649252527223	151
1	4527	161.773328855839	150
1	4543	162.570224568024	151
1	4552	162.649252527223	152
1	4553	162.773328855839	151
1	4569	163.037497134434	152
1	4572	163.641796206282	153
1	4581	163.649252527223	154
1	4582	163.773328855839	153
1	4598	164.186653334427	154
1	4607	164.649252527223	155
1	4608	164.773328855839	154
1	4630	165.466987538239	155
1	4639	165.649252527223	156
1	4640	165.773328855839	155
1	4656	165.921899383031	156
1	4665	166.649252527223	157
1	4666	166.773328855839	156
1	4694	167.649252527223	157
1	4695	167.773328855839	156
1	4717	168.649252527223	157
1	4718	168.773328855839	156
1	4743	169.631859974935	157
1	4752	169.649252527223	158
1	4753	169.773328855839	157
1	4769	170.078112795454	158
1	4778	170.649252527223	159
1	4779	170.773328855839	158
1	4804	171.649252527223	159
1	4805	171.773328855839	158
1	4830	172.649252527223	159
1	4831	172.773328855839	158
1	4847	172.962724547556	159
1	4850	173.151019522775	160
1	4853	173.565632065434	161
1	4862	173.649252527223	162
1	4866	173.773328855839	161
1	4882	174.301763165421	162
1	4888	174.35763321831	163
1	4891	174.580772426411	164
1	4900	174.649252527223	165
1	4904	174.773328855839	164
1	4923	174.77860193387	165
1	4938	175.649252527223	166
1	4939	175.773328855839	165
1	4958	176.357014655976	166
1	4967	176.649252527223	167
1	4968	176.773328855839	166
1	4984	176.780671757333	167
1	4993	177.649252527223	168
1	4994	177.773328855839	167
1	5019	178.649252527223	168
1	5020	178.773328855839	167
1	5042	179.649252527223	168
1	5045	179.66521604574	169
1	5046	179.773328855839	168
1	5065	180.602354763463	169
1	5074	180.649252527223	170
1	5075	180.773328855839	169
1	5091	181.510318790788	170
1	5094	181.542675595433	171
1	5103	181.649252527223	172
1	5107	181.773328855839	171
1	5135	182.649252527223	172
1	5136	182.773328855839	171
1	5152	183.0735068217	172
1	5155	183.125189727495	173
1	5167	183.649252527223	174
1	5168	183.773328855839	173
1	5184	183.986113364176	174
1	5187	184.257781434518	175
1	5196	184.649252527223	176
1	5197	184.773328855839	175
1	5222	185.649252527223	176
1	5223	185.773328855839	175
1	5245	186.649252527223	176
1	5246	186.773328855839	175
1	5271	187.649252527223	176
1	5272	187.773328855839	175
1	5297	188.649252527223	176
1	5298	188.773328855839	175
1	5317	189.136914322512	176
1	5326	189.649252527223	177
1	5327	189.773328855839	176
1	5343	189.903993977084	177
1	5355	190.649252527223	178
1	5356	190.773328855839	177
1	5381	191.649252527223	178
1	5382	191.773328855839	177
1	5398	191.901165944574	178
1	5410	192.649252527223	179
1	5411	192.773328855839	178
1	5427	193.210951315936	179
1	5430	193.584837811839	180
1	5439	193.649252527223	181
1	5440	193.773328855839	180
1	5456	194.392817865238	181
1	5465	194.649252527223	182
1	5466	194.773328855839	181
1	5482	194.900682987925	182
1	5485	195.139435860773	183
1	5488	195.374960434192	184
1	5494	195.626559047305	185
1	5503	195.649252527223	186
1	5507	195.773328855839	185
1	5523	195.873418316104	186
1	5532	196.649252527223	187
1	5535	196.716397091518	188
1	5536	196.773328855839	187
1	5558	197.649252527223	188
1	5559	197.773328855839	187
1	5575	198.061744524752	188
1	5583	198.649252527223	189
1	5586	198.663423511276	190
1	5587	198.773328855839	189
1	5612	199.773328855839	188
2	10	1.859604212075	1
2	19	2.646805352057	1
2	62	4.52576940626	1
2	87	5.563928706924	1
2	104	6.139447903807	1
2	159	8.362972325843	1
2	167	8.681328466685	1
2	184	9.164930571633	1
2	209	9.814376919884	1
2	247	11.486588120209	1
2	267	12.14047068743	1
2	279	12.639342696446	1
2	357	15.237596782295	1
2	360	15.258022370694	1
2	372	15.717270507949	1
2	424	17.504758171388	1
2	464	19.010542430025	1
2	467	19.16177328369	1
2	519	21.202087541632	1
2	609	25.047309410774	1
2	616	25.666238870401	1
2	670	27.182774844391	1
2	697	28.20420671874	1
2	721	29.076527913782	1
2	800	31.970948391769	1
2	810	32.6126430938	1
2	861	34.100897919552	1
2	865	34.344946410289	1
2	903	35.185281115901	1
2	906	35.347417605347	1
2	935	36.294414282522	1
2	967	37.25396225989	1
2	1016	39.582875634104	1
2	1048	40.728014588804	1
2	1080	41.677509172301	1
2	1120	42.873616971758	1
2	1123	42.978178197533	1
2	1126	43.040293487999	1
2	1216	46.540507172454	1
2	1220	46.727933238472	1
2	1237	46.964139944555	1
2	1250	47.407543973176	1
2	1272	47.786505937459	1
2	1287	48.72256749723	1
2	1307	49.115680054534	1
2	1310	49.154863210947	1
2	1322	49.732187521754	1
2	1351	50.738058526921	1
2	1437	53.931005168975	1
2	1440	54.038640277131	1
2	1472	55.096466690483	1
2	1475	55.272380235909	1
2	1626	60.632480586152	1
2	1647	60.805608042298	1
2	1650	60.92256345209	1
2	1679	62.045731753623	1
2	1688	62.427287596997	1
2	1700	62.646168193504	1
2	1781	65.633358085356	1
2	1784	65.647022663787	1
2	1787	65.749167545312	1
2	1813	66.724269479468	1
2	1862	68.544088398752	1
2	1960	72.293119858336	1
2	1982	72.925456454732	1
2	1990	73.638040048065	1
2	2092	77.399967332569	1
2	2099	77.732377573533	1
2	2116	77.860434338844	1
2	2119	78.305853800764	1
2	2127	78.657029890145	1
2	2144	79.312676174509	1
2	2156	79.439064810934	1
2	2182	80.605938337483	1
2	2199	80.988639286345	1
2	2254	83.112876483347	1
2	2257	83.179173884829	1
2	2269	83.423569332911	1
2	2298	84.602758859976	1
2	2327	85.438856391946	1
2	2330	85.747271232044	1
2	2356	86.458519169261	1
2	2373	87.199278119708	1
2	2437	89.684860476685	1
2	2469	90.542756117759	1
2	2486	90.868096533288	1
2	2489	91.251656747387	1
2	2492	91.261057498051	1
2	2518	92.361903408142	1
2	2576	94.209231059144	1
2	2634	96.050513530631	1
2	2649	96.557713653888	1
2	2675	97.362511053689	1
2	2701	97.824241949733	1
2	2704	97.828948490225	1
2	2707	97.987289996456	1
2	2736	99.119924138428	1
2	2748	99.434645799283	1
2	2777	100.65115445272	1
2	2794	100.991501190955	1
2	2881	104.26664436867	1
2	2910	105.163235239456	1
2	2936	106.01245605102	1
2	2965	107.031114781039	1
2	3017	109.252621679513	1
2	3046	110.392229643046	1
2	3075	110.988609037376	1
2	3182	114.83161562062	1
2	3223	116.512537825166	1
2	3252	117.63781984201	1
2	3269	117.92523031808	1
2	3295	118.795766144406	1
2	3301	119.171504986813	1
2	3388	122.535875439864	1
2	3431	123.827784708665	1
2	3446	124.523584169565	1
2	3533	127.649052527223	1
2	3558	128.58145540763	1
2	3561	128.600835188978	1
2	3586	129.235962904609	1
2	3615	130.495006421873	1
2	3644	130.834671154455	1
2	3650	131.318306841044	1
2	3691	132.701286047581	1
2	3708	132.846860026029	1