version 3
run General-0-20250526-10:44:27-10186
attr configname General
attr datetime 20250526-10:44:27
attr datetimef 20250526-104427
attr experiment General
attr inifile omnetpp.ini
attr iterationvars ""
attr iterationvarsd ""
attr iterationvarsf ""
attr measurement ""
attr network Network
attr processid 10186
attr repetition 0
attr replication #0
attr resultdir results
attr runnumber 0
attr seedset 0
config network Network
config sim-time-limit 200s
config "Network.node[{0, 1, 2, 3, 4, 6, 7}].app.interArrivalTime" exponential(4)
config "Network.node[{0, 1, 2, 3, 4, 6, 7}].app.packetByteSize" 125000
config "Network.node[{0, 1, 2, 3, 4, 6, 7}].app.destination" 5

vector 0 Network.node[7].lnk[0] "Lnk use" ETV
vector 1 Network.node[7].lnk[0] "Buffer Size" ETV
vector 2 Network.node[6].lnk[0] "Lnk use" ETV
vector 3 Network.node[6].lnk[0] "Buffer Size" ETV
vector 4 Network.node[6].lnk[1] "Lnk use" ETV
vector 5 Network.node[5].lnk[1] "Lnk use" ETV
vector 6 Network.node[5].app "Delay Source 6" ETV
vector 7 Network.node[5].app "HopCount Source 6" ETV
vector 8 Network.node[0].lnk[0] "Lnk use" ETV
vector 9 Network.node[0].lnk[0] "Buffer Size" ETV
vector 10 Network.node[4].lnk[0] "Lnk use" ETV
vector 11 Network.node[4].lnk[0] "Buffer Size" ETV
vector 12 Network.node[7].lnk[1] "Lnk use" ETV
vector 13 Network.node[3].lnk[1] "Lnk use" ETV
vector 14 Network.node[3].lnk[0] "Lnk use" ETV
vector 15 Network.node[3].lnk[0] "Buffer Size" ETV
vector 16 Network.node[5].app "Delay Source 7" ETV
vector 17 Network.node[5].app "HopCount Source 7" ETV
vector 18 Network.node[2].lnk[1] "Lnk use" ETV
vector 19 Network.node[2].lnk[0] "Lnk use" ETV
vector 20 Network.node[2].lnk[0] "Buffer Size" ETV
vector 21 Network.node[5].app "Delay Source 0" ETV
vector 22 Network.node[5].app "HopCount Source 0" ETV
vector 23 Network.node[1].lnk[1] "Lnk use" ETV
vector 24 Network.node[1].lnk[0] "Lnk use" ETV
vector 25 Network.node[1].lnk[0] "Buffer Size" ETV
vector 26 Network.node[0].lnk[1] "Lnk use" ETV
vector 27 Network.node[5].app "Delay Source 4" ETV
vector 28 Network.node[5].app "HopCount Source 4" ETV
vector 29 Network.node[5].app "Delay Source 1" ETV
vector 30 Network.node[5].app "HopCount Source 1" ETV
vector 31 Network.node[5].app "Delay Source 2" ETV
vector 32 Network.node[5].app "HopCount Source 2" ETV
vector 33 Network.node[5].app "Delay Source 3" ETV
vector 34 Network.node[5].app "HopCount Source 3" ETV
0	3	1.41263655655	1
0	35	4.594341553936	1
0	62	5.867766117303	1
0	117	8.465551510306	1
0	135	9.465551510306	1
0	155	10.306734244695	1
0	160	10.465551510306	1
0	195	11.465551510306	1
0	225	12.465551510306	1
0	264	13.465551510306	1
0	299	14.465551510306	1
0	331	15.465551510306	1
0	365	16.465551510306	1
0	389	17.465551510306	1
0	416	18.465551510306	1
0	436	19.465551510306	1
0	463	20.465551510306	1
0	473	20.699750588091	1
0	491	21.465551510306	1
0	516	22.465551510306	1
0	539	23.465551510306	1
0	562	24.465551510306	1
0	586	25.465551510306	1
0	611	26.465551510306	1
0	631	27.155758887661	1
0	647	27.465551510306	1
0	671	28.465551510306	1
0	692	29.465551510306	1
0	715	30.465551510306	1
0	729	30.645043667829	1
0	751	31.465551510306	1
0	776	32.465551510306	1
0	811	33.465551510306	1
0	821	33.596352834853	1
0	846	34.465551510306	1
0	874	35.465551510306	1
0	890	36.032682527585	1
0	907	36.465551510306	1
0	937	37.465551510306	1
0	965	38.465551510306	1
0	992	39.465551510306	1
0	1002	39.878206283848	1
0	1019	40.465551510306	1
0	1049	41.465551510306	1
0	1077	42.465551510306	1
0	1104	43.465551510306	1
0	1131	44.458762102648	1
0	1136	44.465551510306	1
0	1159	45.465551510306	1
0	1179	46.465551510306	1
0	1202	47.465551510306	1
0	1226	48.465551510306	1
0	1236	48.854411972852	1
0	1256	49.465551510306	1
0	1269	49.799238797183	1
0	1291	50.465551510306	1
0	1308	51.315086654314	1
0	1327	51.465551510306	1
0	1361	52.465551510306	1
0	1374	52.88753688353	1
0	1392	53.465551510306	1
0	1423	54.465551510306	1
0	1458	55.465551510306	1
0	1490	56.465551510306	1
0	1521	57.465551510306	1
0	1544	58.465551510306	1
0	1572	59.465551510306	1
0	1601	60.465551510306	1
0	1629	61.465551510306	1
0	1660	62.465551510306	1
0	1695	63.465551510306	1
0	1733	64.465551510306	1
0	1761	65.465551510306	1
0	1795	66.465551510306	1
0	1829	67.465551510306	1
0	1863	68.465551510306	1
0	1898	69.465551510306	1
0	1929	70.465551510306	1
0	1943	70.705524268234	1
0	1960	71.465551510306	1
0	1994	72.465551510306	1
0	2025	73.465551510306	1
0	2053	74.465551510306	1
0	2080	75.465551510306	1
0	2107	76.465551510306	1
0	2131	77.465551510306	1
0	2145	77.984799945372	1
0	2161	78.465551510306	1
0	2194	79.465551510306	1
0	2214	80.465551510306	1
0	2224	80.835134318705	1
0	2243	81.465551510306	1
0	2266	82.465551510306	1
0	2292	83.465551510306	1
0	2321	84.465551510306	1
0	2341	85.465551510306	1
0	2361	86.212115407314	1
0	2373	86.465551510306	1
0	2397	87.465551510306	1
0	2431	88.465551510306	1
0	2459	89.465551510306	1
0	2494	90.465551510306	1
0	2504	90.879609513509	1
0	2526	91.465551510306	1
0	2550	92.465551510306	1
0	2576	93.465551510306	1
0	2590	94.22399964139	1
0	2603	94.465551510306	1
0	2631	95.465551510306	1
0	2661	96.465551510306	1
0	2675	97.068991390259	1
0	2692	97.465551510306	1
0	2726	98.465551510306	1
0	2757	99.465551510306	1
0	2787	100.465551510306	1
0	2800	100.500573954556	1
0	2807	101.065896808799	1
0	2819	101.465551510306	1
0	2839	102.465551510306	1
0	2855	103.465551510306	1
0	2878	104.465551510306	1
0	2888	105.233019425517	1
0	2901	105.465551510306	1
0	2926	106.463090320567	1
0	2931	106.465551510306	1
0	2964	107.465551510306	1
0	2998	108.465551510306	1
0	3029	109.465551510306	1
0	3039	109.682279919773	1
0	3062	110.465551510306	1
0	3076	110.941166563192	1
0	3092	111.465551510306	1
0	3118	112.302553516133	1
0	3123	112.465551510306	1
0	3149	113.446637406165	1
0	3154	113.465551510306	1
0	3182	114.465551510306	1
0	3215	115.465551510306	1
0	3243	116.465551510306	1
0	3257	116.880209277481	1
0	3270	117.465551510306	1
0	3284	117.889889249045	1
0	3296	118.465551510306	1
0	3323	119.465551510306	1
0	3348	120.465551510306	1
0	3379	121.465551510306	1
0	3403	122.465551510306	1
0	3431	123.465551510306	1
0	3463	124.465551510306	1
0	3491	125.465551510306	1
0	3514	126.465551510306	1
0	3524	126.775916842942	1
0	3533	127.465551510306	1
0	3556	128.465551510306	1
0	3571	128.898806829408	1
0	3580	129.465551510306	1
0	3611	130.465551510306	1
0	3640	131.465551510306	1
0	3676	132.465551510306	1
0	3704	133.465551510306	1
0	3727	134.465551510306	1
0	3747	135.465551510306	1
0	3766	136.465551510306	1
0	3783	137.41680441368	1
0	3788	137.465551510306	1
0	3808	138.465551510306	1
0	3832	139.465551510306	1
0	3860	140.464275498864	1
0	3865	140.465551510306	1
0	3893	141.465551510306	1
0	3926	142.465551510306	1
0	3946	143.465551510306	1
0	3968	144.32208976084	1
0	3979	144.465551510306	1
0	4014	145.465551510306	1
0	4049	146.465551510306	1
0	4077	147.465551510306	1
0	4105	148.465551510306	1
0	4139	149.358263829895	1
0	4144	149.465551510306	1
0	4170	150.465551510306	1
0	4188	151.106375884991	1
0	4191	151.243189558423	1
0	4203	151.465551510306	1
0	4227	152.465551510306	1
0	4253	153.465551510306	1
0	4280	154.465551510306	1
0	4312	155.465551510306	1
0	4322	155.479227099948	1
0	4352	156.465551510306	1
0	4381	157.311918635781	1
0	4386	157.465551510306	1
0	4420	158.465551510306	1
0	4444	159.465551510306	1
0	4468	160.465551510306	1
0	4491	161.465551510306	1
0	4511	162.465551510306	1
0	4537	163.465551510306	1
0	4553	163.875508947488	1
0	4567	164.465551510306	1
0	4602	165.465551510306	1
0	4632	166.409359418379	1
0	4637	166.465551510306	1
0	4662	167.465551510306	1
0	4682	168.465551510306	1
0	4705	169.465551510306	1
0	4729	170.465551510306	1
0	4754	171.465551510306	1
0	4782	172.465551510306	1
0	4815	173.465551510306	1
0	4842	174.465551510306	1
0	4856	174.512994686792	1
0	4869	175.465551510306	1
0	4896	176.465551510306	1
0	4916	177.465551510306	1
0	4938	178.465551510306	1
0	4960	179.465551510306	1
0	4986	180.465551510306	1
0	5004	181.099871092099	1
0	5013	181.465551510306	1
0	5043	182.465551510306	1
0	5061	183.279299604678	1
0	5070	183.465551510306	1
0	5094	184.465551510306	1
0	5121	185.465551510306	1
0	5152	186.465551510306	1
0	5179	187.465551510306	1
0	5206	188.465551510306	1
0	5226	189.465551510306	1
0	5249	190.465551510306	1
0	5265	191.465551510306	1
0	5293	192.465551510306	1
0	5324	193.465551510306	1
0	5351	194.465551510306	1
0	5375	195.465551510306	1
0	5408	196.465551510306	1
0	5454	197.465551510306	1
0	5468	198.119141972293	1
0	5488	198.465551510306	1
0	5519	199.465551510306	1
1	3	1.41263655655	1
1	4	1.41263655655	0
1	35	4.594341553936	1
1	36	4.594341553936	0
1	62	5.867766117303	1
1	63	5.867766117303	0
1	117	8.465551510306	1
1	118	8.465551510306	0
1	135	9.465551510306	1
1	136	9.465551510306	0
1	155	10.306734244695	1
1	158	10.465551510306	0
1	160	10.465551510306	1
1	193	11.465551510306	0
1	195	11.465551510306	1
1	223	12.465551510306	0
1	225	12.465551510306	1
1	262	13.465551510306	0
1	264	13.465551510306	1
1	297	14.465551510306	0
1	299	14.465551510306	1
1	329	15.465551510306	0
1	331	15.465551510306	1
1	363	16.465551510306	0
1	365	16.465551510306	1
1	387	17.465551510306	0
1	389	17.465551510306	1
1	414	18.465551510306	0
1	416	18.465551510306	1
1	434	19.465551510306	0
1	436	19.465551510306	1
1	461	20.465551510306	0
1	463	20.465551510306	1
1	473	20.699750588091	2
1	489	21.465551510306	1
1	491	21.465551510306	2
1	514	22.465551510306	1
1	516	22.465551510306	2
1	537	23.465551510306	1
1	539	23.465551510306	2
1	560	24.465551510306	1
1	562	24.465551510306	2
1	584	25.465551510306	1
1	586	25.465551510306	2
1	609	26.465551510306	1
1	611	26.465551510306	2
1	631	27.155758887661	3
1	645	27.465551510306	2
1	647	27.465551510306	3
1	669	28.465551510306	2
1	671	28.465551510306	3
1	690	29.465551510306	2
1	692	29.465551510306	3
1	713	30.465551510306	2
1	715	30.465551510306	3
1	729	30.645043667829	4
1	749	31.465551510306	3
1	751	31.465551510306	4
1	774	32.465551510306	3
1	776	32.465551510306	4
1	809	33.465551510306	3
1	811	33.465551510306	4
1	821	33.596352834853	5
1	844	34.465551510306	4
1	846	34.465551510306	5
1	872	35.465551510306	4
1	874	35.465551510306	5
1	890	36.032682527585	6
1	905	36.465551510306	5
1	907	36.465551510306	6
1	935	37.465551510306	5
1	937	37.465551510306	6
1	963	38.465551510306	5
1	965	38.465551510306	6
1	990	39.465551510306	5
1	992	39.465551510306	6
1	1002	39.878206283848	7
1	1017	40.465551510306	6
1	1019	40.465551510306	7
1	1047	41.465551510306	6
1	1049	41.465551510306	7
1	1075	42.465551510306	6
1	1077	42.465551510306	7
1	1102	43.465551510306	6
1	1104	43.465551510306	7
1	1131	44.458762102648	8
1	1134	44.465551510306	7
1	1136	44.465551510306	8
1	1157	45.465551510306	7
1	1159	45.465551510306	8
1	1177	46.465551510306	7
1	1179	46.465551510306	8
1	1200	47.465551510306	7
1	1202	47.465551510306	8
1	1224	48.465551510306	7
1	1226	48.465551510306	8
1	1236	48.854411972852	9
1	1254	49.465551510306	8
1	1256	49.465551510306	9
1	1269	49.799238797183	10
1	1289	50.465551510306	9
1	1291	50.465551510306	10
1	1308	51.315086654314	11
1	1325	51.465551510306	10
1	1327	51.465551510306	11
1	1359	52.465551510306	10
1	1361	52.465551510306	11
1	1374	52.88753688353	12
1	1390	53.465551510306	11
1	1392	53.465551510306	12
1	1421	54.465551510306	11
1	1423	54.465551510306	12
1	1456	55.465551510306	11
1	1458	55.465551510306	12
1	1488	56.465551510306	11
1	1490	56.465551510306	12
1	1519	57.465551510306	11
1	1521	57.465551510306	12
1	1542	58.465551510306	11
1	1544	58.465551510306	12
1	1570	59.465551510306	11
1	1572	59.465551510306	12
1	1599	60.465551510306	11
1	1601	60.465551510306	12
1	1627	61.465551510306	11
1	1629	61.465551510306	12
1	1658	62.465551510306	11
1	1660	62.465551510306	12
1	1693	63.465551510306	11
1	1695	63.465551510306	12
1	1731	64.465551510306	11
1	1733	64.465551510306	12
1	1759	65.465551510306	11
1	1761	65.465551510306	12
1	1793	66.465551510306	11
1	1795	66.465551510306	12
1	1827	67.465551510306	11
1	1829	67.465551510306	12
1	1861	68.465551510306	11
1	1863	68.465551510306	12
1	1896	69.465551510306	11
1	1898	69.465551510306	12
1	1927	70.465551510306	11
1	1929	70.465551510306	12
1	1943	70.705524268234	13
1	1958	71.465551510306	12
1	1960	71.465551510306	13
1	1992	72.465551510306	12
1	1994	72.465551510306	13
1	2023	73.465551510306	12
1	2025	73.465551510306	13
1	2051	74.465551510306	12
1	2053	74.465551510306	13
1	2078	75.465551510306	12
1	2080	75.465551510306	13
1	2105	76.465551510306	12
1	2107	76.465551510306	13
1	2129	77.465551510306	12
1	2131	77.465551510306	13
1	2145	77.984799945372	14
1	2159	78.465551510306	13
1	2161	78.465551510306	14
1	2192	79.465551510306	13
1	2194	79.465551510306	14
1	2212	80.465551510306	13
1	2214	80.465551510306	14
1	2224	80.835134318705	15
1	2241	81.465551510306	14
1	2243	81.465551510306	15
1	2264	82.465551510306	14
1	2266	82.465551510306	15
1	2290	83.465551510306	14
1	2292	83.465551510306	15
1	2319	84.465551510306	14
1	2321	84.465551510306	15
1	2339	85.465551510306	14
1	2341	85.465551510306	15
1	2361	86.212115407314	16
1	2371	86.465551510306	15
1	2373	86.465551510306	16
1	2395	87.465551510306	15
1	2397	87.465551510306	16
1	2429	88.465551510306	15
1	2431	88.465551510306	16
1	2457	89.465551510306	15
1	2459	89.465551510306	16
1	2492	90.465551510306	15
1	2494	90.465551510306	16
1	2504	90.879609513509	17
1	2524	91.465551510306	16
1	2526	91.465551510306	17
1	2548	92.465551510306	16
1	2550	92.465551510306	17
1	2574	93.465551510306	16
1	2576	93.465551510306	17
1	2590	94.22399964139	18
1	2601	94.465551510306	17
1	2603	94.465551510306	18
1	2629	95.465551510306	17
1	2631	95.465551510306	18
1	2659	96.465551510306	17
1	2661	96.465551510306	18
1	2675	97.068991390259	19
1	2690	97.465551510306	18
1	2692	97.465551510306	19
1	2724	98.465551510306	18
1	2726	98.465551510306	19
1	2755	99.465551510306	18
1	2757	99.465551510306	19
1	2785	100.465551510306	18
1	2787	100.465551510306	19
1	2800	100.500573954556	20
1	2807	101.065896808799	21
1	2817	101.465551510306	20
1	2819	101.465551510306	21
1	2837	102.465551510306	20
1	2839	102.465551510306	21
1	2853	103.465551510306	20
1	2855	103.465551510306	21
1	2876	104.465551510306	20
1	2878	104.465551510306	21
1	2888	105.233019425517	22
1	2899	105.465551510306	21
1	2901	105.465551510306	22
1	2926	106.463090320567	23
1	2929	106.465551510306	22
1	2931	106.465551510306	23
1	2962	107.465551510306	22
1	2964	107.465551510306	23
1	2996	108.465551510306	22
1	2998	108.465551510306	23
1	3027	109.465551510306	22
1	3029	109.465551510306	23
1	3039	109.682279919773	24
1	3060	110.465551510306	23
1	3062	110.465551510306	24
1	3076	110.941166563192	25
1	3090	111.465551510306	24
1	3092	111.465551510306	25
1	3118	112.302553516133	26
1	3121	112.465551510306	25
1	3123	112.465551510306	26
1	3149	113.446637406165	27
1	3152	113.465551510306	26
1	3154	113.465551510306	27
1	3180	114.465551510306	26
1	3182	114.465551510306	27
1	3213	115.465551510306	26
1	3215	115.465551510306	27
1	3241	116.465551510306	26
1	3243	116.465551510306	27
1	3257	116.880209277481	28
1	3268	117.465551510306	27
1	3270	117.465551510306	28
1	3284	117.889889249045	29
1	3294	118.465551510306	28
1	3296	118.465551510306	29
1	3321	119.465551510306	28
1	3323	119.465551510306	29
1	3346	120.465551510306	28
1	3348	120.465551510306	29
1	3377	121.465551510306	28
1	3379	121.465551510306	29
1	3401	122.465551510306	28
1	3403	122.465551510306	29
1	3429	123.465551510306	28
1	3431	123.465551510306	29
1	3461	124.465551510306	28
1	3463	124.465551510306	29
1	3489	125.465551510306	28
1	3491	125.465551510306	29
1	3512	126.465551510306	28
1	3514	126.465551510306	29
1	3524	126.775916842942	30
1	3531	127.465551510306	29
1	3533	127.465551510306	30
1	3554	128.465551510306	29
1	3556	128.465551510306	30
1	3571	128.898806829408	31
1	3578	129.465551510306	30
1	3580	129.465551510306	31
1	3609	130.465551510306	30
1	3611	130.465551510306	31
1	3638	131.465551510306	30
1	3640	131.465551510306	31
1	3674	132.465551510306	30
1	3676	132.465551510306	31
1	3702	133.465551510306	30
1	3704	133.465551510306	31
1	3725	134.465551510306	30
1	3727	134.465551510306	31
1	3745	135.465551510306	30
1	3747	135.465551510306	31
1	3764	136.465551510306	30
1	3766	136.465551510306	31
1	3783	137.41680441368	32
1	3786	137.465551510306	31
1	3788	137.465551510306	32
1	3806	138.465551510306	31
1	3808	138.465551510306	32
1	3830	139.465551510306	31
1	3832	139.465551510306	32
1	3860	140.464275498864	33
1	3863	140.465551510306	32
1	3865	140.465551510306	33
1	3891	141.465551510306	32
1	3893	141.465551510306	33
1	3924	142.465551510306	32
1	3926	142.465551510306	33
1	3944	143.465551510306	32
1	3946	143.465551510306	33
1	3968	144.32208976084	34
1	3977	144.465551510306	33
1	3979	144.465551510306	34
1	4012	145.465551510306	33
1	4014	145.465551510306	34
1	4047	146.465551510306	33
1	4049	146.465551510306	34
1	4075	147.465551510306	33
1	4077	147.465551510306	34
1	4103	148.465551510306	33
1	4105	148.465551510306	34
1	4139	149.358263829895	35
1	4142	149.465551510306	34
1	4144	149.465551510306	35
1	4168	150.465551510306	34
1	4170	150.465551510306	35
1	4188	151.106375884991	36
1	4191	151.243189558423	37
1	4201	151.465551510306	36
1	4203	151.465551510306	37
1	4225	152.465551510306	36
1	4227	152.465551510306	37
1	4251	153.465551510306	36
1	4253	153.465551510306	37
1	4278	154.465551510306	36
1	4280	154.465551510306	37
1	4310	155.465551510306	36
1	4312	155.465551510306	37
1	4322	155.479227099948	38
1	4350	156.465551510306	37
1	4352	156.465551510306	38
1	4381	157.311918635781	39
1	4384	157.465551510306	38
1	4386	157.465551510306	39
1	4418	158.465551510306	38
1	4420	158.465551510306	39
1	4442	159.465551510306	38
1	4444	159.465551510306	39
1	4466	160.465551510306	38
1	4468	160.465551510306	39
1	4489	161.465551510306	38
1	4491	161.465551510306	39
1	4509	162.465551510306	38
1	4511	162.465551510306	39
1	4535	163.465551510306	38
1	4537	163.465551510306	39
1	4553	163.875508947488	40
1	4565	164.465551510306	39
1	4567	164.465551510306	40
1	4600	165.465551510306	39
1	4602	165.465551510306	40
1	4632	166.409359418379	41
1	4635	166.465551510306	40
1	4637	166.465551510306	41
1	4660	167.465551510306	40
1	4662	167.465551510306	41
1	4680	168.465551510306	40
1	4682	168.465551510306	41
1	4703	169.465551510306	40
1	4705	169.465551510306	41
1	4727	170.465551510306	40
1	4729	170.465551510306	41
1	4752	171.465551510306	40
1	4754	171.465551510306	41
1	4780	172.465551510306	40
1	4782	172.465551510306	41
1	4813	173.465551510306	40
1	4815	173.465551510306	41
1	4840	174.465551510306	40
1	4842	174.465551510306	41
1	4856	174.512994686792	42
1	4867	175.465551510306	41
1	4869	175.465551510306	42
1	4894	176.465551510306	41
1	4896	176.465551510306	42
1	4914	177.465551510306	41
1	4916	177.465551510306	42
1	4936	178.465551510306	41
1	4938	178.465551510306	42
1	4958	179.465551510306	41
1	4960	179.465551510306	42
1	4984	180.465551510306	41
1	4986	180.465551510306	42
1	5004	181.099871092099	43
1	5011	181.465551510306	42
1	5013	181.465551510306	43
1	5041	182.465551510306	42
1	5043	182.465551510306	43
1	5061	183.279299604678	44
1	5068	183.465551510306	43
1	5070	183.465551510306	44
1	5092	184.465551510306	43
1	5094	184.465551510306	44
1	5119	185.465551510306	43
1	5121	185.465551510306	44
1	5150	186.465551510306	43
1	5152	186.465551510306	44
1	5177	187.465551510306	43
1	5179	187.465551510306	44
1	5204	188.465551510306	43
1	5206	188.465551510306	44
1	5224	189.465551510306	43
1	5226	189.465551510306	44
1	5247	190.465551510306	43
1	5249	190.465551510306	44
1	5263	191.465551510306	43
1	5265	191.465551510306	44
1	5291	192.465551510306	43
1	5293	192.465551510306	44
1	5322	193.465551510306	43
1	5324	193.465551510306	44
1	5349	194.465551510306	43
1	5351	194.465551510306	44
1	5373	195.465551510306	43
1	5375	195.465551510306	44
1	5406	196.465551510306	43
1	5408	196.465551510306	44
1	5452	197.465551510306	43
1	5454	197.465551510306	44
1	5468	198.119141972293	45
1	5486	198.465551510306	44
1	5488	198.465551510306	45
1	5517	199.465551510306	44
1	5519	199.465551510306	45
2	7	1.940512654887	1
2	11	2.174051331259	1
2	15	2.41273655655	1
2	53	5.594441553936	1
2	81	6.867866117303	1
2	139	9.465651510306	1
2	164	10.465651510306	1
2	199	11.465651510306	1
2	229	12.465651510306	1
2	268	13.465651510306	1
2	303	14.465651510306	1
2	326	15.433700450972	1
2	335	15.465651510306	1
2	341	16.038623865632	1
2	369	16.465651510306	1
2	393	17.465651510306	1
2	420	18.465651510306	1
2	440	19.465651510306	1
2	467	20.465651510306	1
2	495	21.465651510306	1
2	520	22.465651510306	1
2	543	23.465651510306	1
2	553	24.1998808974	1
2	566	24.465651510306	1
2	590	25.465651510306	1
2	615	26.465651510306	1
2	628	27.139738582159	1
2	651	27.465651510306	1
2	675	28.465651510306	1
2	696	29.465651510306	1
2	719	30.465651510306	1
2	739	31.225466079556	1
2	755	31.465651510306	1
2	780	32.465651510306	1
2	806	33.367728960467	1
2	815	33.465651510306	1
2	850	34.465651510306	1
2	878	35.465651510306	1
2	911	36.465651510306	1
2	941	37.465651510306	1
2	969	38.465651510306	1
2	975	38.708889698963	1
2	996	39.465651510306	1
2	1023	40.465651510306	1
2	1053	41.465651510306	1
2	1081	42.465651510306	1
2	1108	43.465651510306	1
2	1140	44.465651510306	1
2	1163	45.465651510306	1
2	1183	46.465651510306	1
2	1206	47.465651510306	1
2	1230	48.465651510306	1
2	1260	49.465651510306	1
2	1272	50.220549784074	1
2	1295	50.465651510306	1
2	1331	51.465651510306	1
2	1365	52.465651510306	1
2	1396	53.465651510306	1
2	1402	53.96479602316	1
2	1427	54.465651510306	1
2	1462	55.465651510306	1
2	1494	56.465651510306	1
2	1525	57.465651510306	1
2	1548	58.465651510306	1
2	1576	59.465651510306	1
2	1605	60.465651510306	1
2	1633	61.465651510306	1
2	1664	62.465651510306	1
2	1699	63.465651510306	1
2	1737	64.465651510306	1
2	1765	65.465651510306	1
2	1799	66.465651510306	1
2	1809	66.736582591374	1
2	1833	67.465651510306	1
2	1867	68.465651510306	1
2	1902	69.465651510306	1
2	1933	70.465651510306	1
2	1964	71.465651510306	1
2	1998	72.465651510306	1
2	2029	73.465651510306	1
2	2057	74.465651510306	1
2	2084	75.465651510306	1
2	2111	76.465651510306	1
2	2135	77.465651510306	1
2	2165	78.465651510306	1
2	2175	78.685342158782	1
2	2181	78.914649864477	1
2	2198	79.465651510306	1
2	2218	80.465651510306	1
2	2235	81.314437411041	1
2	2238	81.395197923626	1
2	2247	81.465651510306	1
2	2253	81.555103119859	1
2	2270	82.465651510306	1
2	2296	83.465651510306	1
2	2305	83.886616675327	1
2	2325	84.465651510306	1
2	2345	85.465651510306	1
2	2351	85.668294523006	1
2	2377	86.465651510306	1
2	2401	87.465651510306	1
2	2418	88.290879660461	1
2	2435	88.465651510306	1
2	2463	89.465651510306	1
2	2498	90.465651510306	1
2	2530	91.465651510306	1
2	2554	92.465651510306	1
2	2580	93.465651510306	1
2	2607	94.465651510306	1
2	2635	95.465651510306	1
2	2665	96.465651510306	1
2	2696	97.465651510306	1
2	2713	98.306526792802	1
2	2730	98.465651510306	1
2	2761	99.465651510306	1
2	2767	99.607888454918	1
2	2770	99.645491457574	1
2	2791	100.465651510306	1
2	2823	101.465651510306	1
2	2843	102.465651510306	1
2	2859	103.465651510306	1
2	2865	104.048875097937	1
2	2882	104.465651510306	1
2	2905	105.465651510306	1
2	2935	106.465651510306	1
2	2968	107.465651510306	1
2	3002	108.465651510306	1
2	3033	109.465651510306	1
2	3066	110.465651510306	1
2	3087	111.414004983885	1
2	3096	111.465651510306	1
2	3127	112.465651510306	1
2	3158	113.465651510306	1
2	3186	114.465651510306	1
2	3219	115.465651510306	1
2	3247	116.465651510306	1
2	3274	117.465651510306	1
2	3300	118.465651510306	1
2	3327	119.465651510306	1
2	3352	120.465651510306	1
2	3383	121.465651510306	1
2	3407	122.465651510306	1
2	3435	123.465651510306	1
2	3467	124.465651510306	1
2	3473	124.514577694744	1
2	3495	125.465651510306	1
2	3518	126.465651510306	1
2	3537	127.465651510306	1
2	3560	128.465651510306	1
2	3584	129.465651510306	1
2	3606	130.341851929001	1
2	3615	130.465651510306	1
2	3644	131.465651510306	1
2	3650	131.844807298628	1
2	3680	132.465651510306	1
2	3708	133.465651510306	1
2	3731	134.465651510306	1
2	3751	135.465651510306	1
2	3770	136.465651510306	1
2	3792	137.465651510306	1
2	3812	138.465651510306	1
2	3836	139.465651510306	1
2	3869	140.465651510306	1
2	3897	141.465651510306	1
2	3930	142.465651510306	1
2	3950	143.465651510306	1
2	3983	144.465651510306	1
2	4009	145.302289110833	1
2	4018	145.465651510306	1
2	4053	146.465651510306	1
2	4081	147.465651510306	1
2	4109	148.465651510306	1
2	4132	149.151789333917	1
2	4148	149.465651510306	1
2	4174	150.465651510306	1
2	4207	151.465651510306	1
2	4231	152.465651510306	1
2	4237	152.52734322428	1
2	4257	153.465651510306	1
2	4284	154.465651510306	1
2	4316	155.465651510306	1
2	4356	156.465651510306	1
2	4366	156.750741658919	1
2	4390	157.465651510306	1
2	4400	157.957005311812	1
2	4424	158.465651510306	1
2	4448	159.465651510306	1
2	4472	160.465651510306	1
2	4478	161.037312749997	1
2	4495	161.465651510306	1
2	4515	162.465651510306	1
2	4532	163.413606743292	1
2	4541	163.465651510306	1
2	4571	164.465651510306	1
2	4606	165.465651510306	1
2	4641	166.465651510306	1
2	4666	167.465651510306	1
2	4686	168.465651510306	1
2	4709	169.465651510306	1
2	4733	170.465651510306	1
2	4758	171.465651510306	1
2	4786	172.465651510306	1
2	4819	173.465651510306	1
2	4825	173.490735263625	1
2	4846	174.465651510306	1
2	4873	175.465651510306	1
2	4900	176.465651510306	1
2	4920	177.465651510306	1
2	4942	178.465651510306	1
2	4964	179.465651510306	1
2	4990	180.465651510306	1
2	5017	181.465651510306	1
2	5023	181.498681245729	1
2	5047	182.465651510306	1
2	5074	183.465651510306	1
2	5098	184.465651510306	1
2	5125	185.465651510306	1
2	5156	186.465651510306	1
2	5162	186.620018060979	1
2	5183	187.465651510306	1
2	5201	188.405029343055	1
2	5210	188.465651510306	1
2	5230	189.465651510306	1
2	5253	190.465651510306	1
2	5269	191.465651510306	1
2	5297	192.465651510306	1
2	5328	193.465651510306	1
2	5355	194.465651510306	1
2	5379	195.465651510306	1
2	5412	196.465651510306	1
2	5458	197.465651510306	1
2	5492	198.465651510306	1
2	5523	199.465651510306	1
2	5533	199.943476351465	1
3	7	1.940512654887	1
3	8	1.940512654887	0
3	11	2.174051331259	1
3	15	2.41273655655	2
3	16	2.940512654887	1
3	28	3.940512654887	0
3	53	5.594441553936	1
3	54	5.594441553936	0
3	81	6.867866117303	1
3	82	6.867866117303	0
3	139	9.465651510306	1
3	140	9.465651510306	0
3	164	10.465651510306	1
3	165	10.465651510306	0
3	199	11.465651510306	1
3	200	11.465651510306	0
3	229	12.465651510306	1
3	230	12.465651510306	0
3	268	13.465651510306	1
3	269	13.465651510306	0
3	303	14.465651510306	1
3	304	14.465651510306	0
3	326	15.433700450972	1
3	333	15.465651510306	0
3	335	15.465651510306	1
3	341	16.038623865632	2
3	367	16.465651510306	1
3	369	16.465651510306	2
3	391	17.465651510306	1
3	393	17.465651510306	2
3	418	18.465651510306	1
3	420	18.465651510306	2
3	438	19.465651510306	1
3	440	19.465651510306	2
3	465	20.465651510306	1
3	467	20.465651510306	2
3	493	21.465651510306	1
3	495	21.465651510306	2
3	518	22.465651510306	1
3	520	22.465651510306	2
3	541	23.465651510306	1
3	543	23.465651510306	2
3	553	24.1998808974	3
3	564	24.465651510306	2
3	566	24.465651510306	3
3	588	25.465651510306	2
3	590	25.465651510306	3
3	613	26.465651510306	2
3	615	26.465651510306	3
3	628	27.139738582159	4
3	649	27.465651510306	3
3	651	27.465651510306	4
3	673	28.465651510306	3
3	675	28.465651510306	4
3	694	29.465651510306	3
3	696	29.465651510306	4
3	717	30.465651510306	3
3	719	30.465651510306	4
3	739	31.225466079556	5
3	753	31.465651510306	4
3	755	31.465651510306	5
3	778	32.465651510306	4
3	780	32.465651510306	5
3	806	33.367728960467	6
3	813	33.465651510306	5
3	815	33.465651510306	6
3	848	34.465651510306	5
3	850	34.465651510306	6
3	876	35.465651510306	5
3	878	35.465651510306	6
3	909	36.465651510306	5
3	911	36.465651510306	6
3	939	37.465651510306	5
3	941	37.465651510306	6
3	967	38.465651510306	5
3	969	38.465651510306	6
3	975	38.708889698963	7
3	994	39.465651510306	6
3	996	39.465651510306	7
3	1021	40.465651510306	6
3	1023	40.465651510306	7
3	1051	41.465651510306	6
3	1053	41.465651510306	7
3	1079	42.465651510306	6
3	1081	42.465651510306	7
3	1106	43.465651510306	6
3	1108	43.465651510306	7
3	1138	44.465651510306	6
3	1140	44.465651510306	7
3	1161	45.465651510306	6
3	1163	45.465651510306	7
3	1181	46.465651510306	6
3	1183	46.465651510306	7
3	1204	47.465651510306	6
3	1206	47.465651510306	7
3	1228	48.465651510306	6
3	1230	48.465651510306	7
3	1258	49.465651510306	6
3	1260	49.465651510306	7
3	1272	50.220549784074	8
3	1293	50.465651510306	7
3	1295	50.465651510306	8
3	1329	51.465651510306	7
3	1331	51.465651510306	8
3	1363	52.465651510306	7
3	1365	52.465651510306	8
3	1394	53.465651510306	7
3	1396	53.465651510306	8
3	1402	53.96479602316	9
3	1425	54.465651510306	8
3	1427	54.465651510306	9
3	1460	55.465651510306	8
3	1462	55.465651510306	9
3	1492	56.465651510306	8
3	1494	56.465651510306	9
3	1523	57.465651510306	8
3	1525	57.465651510306	9
3	1546	58.465651510306	8
3	1548	58.465651510306	9
3	1574	59.465651510306	8
3	1576	59.465651510306	9
3	1603	60.465651510306	8
3	1605	60.465651510306	9
3	1631	61.465651510306	8
3	1633	61.465651510306	9
3	1662	62.465651510306	8
3	1664	62.465651510306	9
3	1697	63.465651510306	8
3	1699	63.465651510306	9
3	1735	64.465651510306	8
3	1737	64.465651510306	9
3	1763	65.465651510306	8
3	1765	65.465651510306	9
3	1797	66.465651510306	8
3	1799	66.465651510306	9
3	1809	66.736582591374	10
3	1831	67.465651510306	9
3	1833	67.465651510306	10
3	1865	68.465651510306	9
3	1867	68.465651510306	10
3	1900	69.465651510306	9
3	1902	69.465651510306	10
3	1931	70.465651510306	9
3	1933	70.465651510306	10
3	1962	71.465651510306	9
3	1964	71.465651510306	10
3	1996	72.465651510306	9
3	1998	72.465651510306	10
3	2027	73.465651510306	9
3	2029	73.465651510306	10
3	2055	74.465651510306	9
3	2057	74.465651510306	10
3	2082	75.465651510306	9
3	2084	75.465651510306	10
3	2109	76.465651510306	9
3	2111	76.465651510306	10
3	2133	77.465651510306	9
3	2135	77.465651510306	10
3	2163	78.465651510306	9
3	2165	78.465651510306	10
3	2175	78.685342158782	11
3	2181	78.914649864477	12
3	2196	79.465651510306	11
3	2198	79.465651510306	12
3	2216	80.465651510306	11
3	2218	80.465651510306	12
3	2235	81.314437411041	13
3	2238	81.395197923626	14
3	2245	81.465651510306	13
3	2247	81.465651510306	14
3	2253	81.555103119859	15
3	2268	82.465651510306	14
3	2270	82.465651510306	15
3	2294	83.465651510306	14