version 3
run General-0-20250518-18:03:10-34290
attr configname General
attr datetime 20250518-18:03:10
attr datetimef 20250518-180310
attr experiment General
attr inifile omnetpp.ini
attr iterationvars ""
attr iterationvarsd ""
attr iterationvarsf ""
attr measurement ""
attr network Network
attr processid 34290
attr repetition 0
attr replication #0
attr resultdir results
attr runnumber 0
attr seedset 0
config network Network
config sim-time-limit 200s
config "Network.node[{0, 1, 2, 3, 4, 6, 7}].app.interArrivalTime" exponential(1)
config "Network.node[{0, 1, 2, 3, 4, 6, 7}].app.packetByteSize" 125000
config "Network.node[{0, 1, 2, 3, 4, 6, 7}].app.destination" 5

vector 0 Network.node[7].lnk[0] "Lnk use" ETV
vector 1 Network.node[7].lnk[0] "Buffer Size" ETV
vector 2 Network.node[6].lnk[0] "Lnk use" ETV
vector 3 Network.node[6].lnk[0] "Buffer Size" ETV
vector 4 Network.node[0].lnk[0] "Lnk use" ETV
vector 5 Network.node[0].lnk[0] "Buffer Size" ETV
vector 6 Network.node[4].lnk[0] "Lnk use" ETV
vector 7 Network.node[4].lnk[0] "Buffer Size" ETV
vector 8 Network.node[6].lnk[1] "Lnk use" ETV
vector 9 Network.node[5].lnk[1] "Lnk use" ETV
vector 10 Network.node[5].app "Delay Source 6" ETV
vector 11 Network.node[5].app "HopCount Source 6" ETV
vector 12 Network.node[1].lnk[0] "Lnk use" ETV
vector 13 Network.node[1].lnk[0] "Buffer Size" ETV
vector 14 Network.node[3].lnk[0] "Lnk use" ETV
vector 15 Network.node[3].lnk[0] "Buffer Size" ETV
vector 16 Network.node[7].lnk[1] "Lnk use" ETV
vector 17 Network.node[2].lnk[0] "Lnk use" ETV
vector 18 Network.node[2].lnk[0] "Buffer Size" ETV
vector 19 Network.node[3].lnk[1] "Lnk use" ETV
vector 20 Network.node[0].lnk[1] "Lnk use" ETV
vector 21 Network.node[2].lnk[1] "Lnk use" ETV
vector 22 Network.node[1].lnk[1] "Lnk use" ETV
vector 23 Network.node[5].app "Delay Source 7" ETV
vector 24 Network.node[5].app "HopCount Source 7" ETV
vector 25 Network.node[5].app "Delay Source 0" ETV
vector 26 Network.node[5].app "HopCount Source 0" ETV
vector 27 Network.node[5].app "Delay Source 1" ETV
vector 28 Network.node[5].app "HopCount Source 1" ETV
vector 29 Network.node[5].app "Delay Source 2" ETV
vector 30 Network.node[5].app "HopCount Source 2" ETV
vector 31 Network.node[5].app "Delay Source 3" ETV
vector 32 Network.node[5].app "HopCount Source 3" ETV
vector 33 Network.node[5].app "Delay Source 4" ETV
vector 34 Network.node[5].app "HopCount Source 4" ETV
0	3	0.353159139138	1
0	48	1.898660388484	1
0	67	2.576683561174	1
0	89	2.898660388484	1
0	139	3.898660388484	1
0	176	4.898660388484	1
0	200	5.174937647023	1
0	216	5.898660388484	1
0	256	6.788939721916	1
0	268	6.898660388484	1
0	299	7.661260916958	1
0	317	7.898660388484	1
0	347	8.399088208714	1
0	375	8.898660388484	1
0	389	9.008170631897	1
0	427	9.898660388484	1
0	441	9.969551570963	1
0	476	10.898660388484	1
0	503	11.114690525663	1
0	522	11.898660388484	1
0	544	12.213602993214	1
0	556	12.449809699297	1
0	569	12.82877166358	1
0	578	12.898660388484	1
0	608	13.221884220884	1
0	636	13.898660388484	1
0	682	14.898660388484	1
0	731	15.898660388484	1
0	783	16.898660388484	1
0	820	17.67638106706	1
0	829	17.898660388484	1
0	872	18.898660388484	1
0	897	19.496199986344	1
0	918	19.898660388484	1
0	936	20.208783579677	1
0	964	20.898660388484	1
0	1001	21.553028851829	1
0	1016	21.898660388484	1
0	1056	22.719902378378	1
0	1065	22.898660388484	1
0	1093	23.555999910348	1
0	1111	23.898660388484	1
0	1132	24.267247847565	1
0	1157	24.898660388484	1
0	1184	25.125143488639	1
0	1187	25.2664742022	1
0	1203	25.898660388484	1
0	1227	26.308254856379	1
0	1243	26.615772580141	1
0	1261	26.898660388484	1
0	1294	27.420569979942	1
0	1307	27.735291640797	1
0	1319	27.898660388484	1
0	1336	28.075638379032	1
0	1346	28.36165935154	1
0	1371	28.898660388484	1
0	1392	29.220052319369	1
0	1395	29.47247231226	1
0	1417	29.898660388484	1
0	1457	30.898660388484	1
0	1491	31.693979210734	1
0	1500	31.898660388484	1
0	1524	32.224701707351	1
0	1549	32.898660388484	1
0	1589	33.898660388484	1
0	1613	34.354201103419	1
0	1635	34.898660388484	1
0	1659	35.116068874715	1
0	1684	35.898660388484	1
0	1701	36.080522440209	1
0	1742	36.898660388484	1
0	1775	37.339565957473	1
0	1791	37.776593971247	1
0	1794	37.810797389605	1
0	1806	37.898660388484	1
0	1846	38.869806774986	1
0	1858	38.898660388484	1
0	1888	39.327979658944	1
0	1907	39.898660388484	1
0	1947	40.898660388484	1
0	1967	40.968877236871	1
0	1990	41.602339854594	1
0	1999	41.898660388484	1
0	2036	42.898660388484	1
0	2076	43.628248671697	1
0	2088	43.898660388484	1
0	2134	44.898660388484	1
0	2161	45.274967773024	1
0	2180	45.819824901169	1
0	2189	45.898660388484	1
0	2235	46.898660388484	1
0	2269	47.898660388484	1
0	2312	48.898660388484	1
0	2365	49.529785493073	1
0	2383	49.898660388484	1
0	2426	50.898660388484	1
0	2475	51.898660388484	1
0	2505	52.41432978148	1
0	2521	52.898660388484	1
0	2564	53.898660388484	1
0	2582	54.41150174897	1
0	2619	54.898660388484	1
0	2625	54.919366871657	1
0	2647	55.521045858181	1
0	2665	55.898660388484	1
0	2720	56.898660388484	1
0	2766	57.898660388484	1
0	2809	58.898660388484	1
0	2823	59.035524538718	1
0	2858	59.898660388484	1
0	2872	60.165880084629	1
0	2878	60.410371106672	1
0	2910	60.898660388484	1
0	2937	61.498275540286	1
0	2953	61.898660388484	1
0	2967	61.981913927776	1
0	2990	62.86941585626	1
0	2993	62.869471208155	1
0	3002	62.898660388484	1
0	3045	63.898660388484	1
0	3088	64.898660388484	1
0	3094	64.930292449036	1
0	3112	65.173010942708	1
0	3137	65.898660388484	1
0	3186	66.898660388484	1
0	3238	67.898660388484	1
0	3262	68.117491220131	1
0	3293	68.898660388484	1
0	3307	69.001276876164	1
0	3314	69.32547598965	1
0	3320	69.467118024445	1
0	3345	69.898660388484	1
0	3400	70.728930697932	1
0	3412	70.898660388484	1
0	3452	71.898660388484	1
0	3482	72.17848547436	1
0	3504	72.898660388484	1
0	3522	73.056700553078	1
0	3528	73.402220136787	1
0	3562	73.677748073825	1
0	3571	73.898660388484	1
0	3611	74.898660388484	1
0	3629	75.215576788302	1
0	3635	75.416018983388	1
0	3660	75.898660388484	1
0	3681	76.134265463496	1
0	3706	76.898660388484	1
0	3724	77.066877318765	1
0	3727	77.3304544316	1
0	3746	77.898660388484	1
0	3780	78.898660388484	1
0	3794	79.441343205983	1
0	3820	79.898660388484	1
0	3838	80.10718569262	1
0	3844	80.453938996409	1
0	3872	80.898660388484	1
0	3912	81.898660388484	1
0	3940	82.344040694505	1
0	3956	82.898660388484	1
0	3993	83.744716391465	1
0	4000	83.891941428778	1
0	4005	83.898660388484	1
0	4031	84.450949098769	1
0	4056	84.898660388484	1
0	4076	85.166994416763	1
0	4095	85.898660388484	1
0	4112	86.0091307196	1
0	4132	86.898660388484	1
0	4163	87.564425079955	1
0	4175	87.898660388484	1
0	4192	88.074415913804	1
0	4212	88.59738356746	1
0	4221	88.739509078853	1
0	4233	88.898660388484	1
0	4291	89.898660388484	1
0	4334	90.898660388484	1
0	4374	91.79436885786	1
0	4386	91.898660388484	1
0	4441	92.898660388484	1
0	4461	93.092814493465	1
0	4493	93.836397685241	1
0	4502	93.898660388484	1
0	4560	94.898660388484	1
0	4591	95.590112330265	1
0	4597	95.786574216162	1
0	4603	95.858993326277	1
0	4606	95.868728735618	1
0	4615	95.898660388484	1
0	4632	96.187312583497	1
0	4655	96.650702611037	1
0	4676	96.898660388484	1
0	4713	97.898660388484	1
0	4771	98.898660388484	1
0	4791	99.24315121982	1
0	4820	99.898660388484	1
0	4837	100.056049581006	1
0	4881	100.898660388484	1
0	4907	101.104338685962	1
0	4913	101.20113615827	1
0	4942	101.898660388484	1
0	4976	102.898660388484	1
0	5010	103.615152588778	1
0	5028	103.898660388484	1
0	5068	104.786416283725	1
0	5077	104.898660388484	1
0	5094	105.060879805729	1
0	5097	105.235874853947	1
0	5100	105.245689290345	1
0	5129	105.898660388484	1
0	5169	106.837245413138	1
0	5178	106.898660388484	1
0	5184	106.939797306142	1
0	5218	107.898660388484	1
0	5261	108.898660388484	1
0	5307	109.898660388484	1
0	5321	109.97373987854	1
0	5359	110.898660388484	1
0	5399	111.898660388484	1
0	5448	112.898660388484	1
0	5462	112.955519535866	1
0	5471	113.160371803013	1
0	5503	113.898660388484	1
0	5509	113.928834380404	1
0	5520	114.032505217046	1
0	5558	114.898660388484	1
0	5613	115.898660388484	1
0	5633	116.068799404318	1
0	5636	116.101803389374	1
0	5642	116.351754206024	1
0	5659	116.643700277753	1
0	5686	116.898660388484	1
0	5703	117.115668365525	1
0	5723	117.584589692798	1
0	5738	117.898660388484	1
0	5755	117.955751413599	1
0	5778	118.898660388484	1
0	5803	119.600934840673	1
0	5821	119.898660388484	1
0	5838	120.05996276816	1
0	5841	120.400199987773	1
0	5848	120.473251644928	1
0	5858	120.749556837856	1
0	5870	120.898660388484	1
0	5908	121.835760149013	1
0	5920	121.898660388484	1
0	5960	122.898660388484	1
0	5993	123.759498719681	1
0	6009	123.898660388484	1
0	6026	124.206638622278	1
0	6045	124.657877420769	1
0	6064	124.898660388484	1
0	6070	124.922659694107	1
0	6110	125.898660388484	1
0	6147	126.898660388484	1
0	6177	127.691804176945	1
0	6190	127.898660388484	1
0	6207	127.978713272329	1
0	6210	128.090657813473	1
0	6220	128.763040715511	1
0	6233	128.898660388484	1
0	6282	129.898660388484	1
0	6319	130.898660388484	1
0	6333	130.984254898711	1
0	6345	131.302309443902	1
0	6361	131.77118759953	1
0	6377	131.898660388484	1
0	6391	132.042743391212	1
0	6400	132.231308115463	1
0	6410	132.582629397005	1
0	6435	132.898660388484	1
0	6481	133.898660388484	1
0	6514	134.753855278359	1
0	6517	134.778783374087	1
0	6530	134.898660388484	1
0	6570	135.898660388484	1
0	6587	135.981340718796	1
0	6603	136.58249536518	1
0	6616	136.898660388484	1
0	6622	136.928928692675	1
0	6671	137.898660388484	1
0	6691	138.043386924391	1
0	6726	138.898660388484	1
0	6766	139.898660388484	1
0	6783	140.300863715147	1
0	6800	140.822975019558	1
0	6809	140.898660388484	1
0	6861	141.898660388484	1
0	6907	142.898660388484	1
0	6950	143.898660388484	1
0	6980	144.542383330457	1
0	6986	144.592298932883	1
0	6996	144.884849534074	1
0	7001	144.898660388484	1
0	7025	145.475684754479	1
0	7038	145.898660388484	1
0	7044	145.90412578327	1
0	7069	146.618759970648	1
0	7084	146.898660388484	1
0	7124	147.759803304901	1
0	7133	147.898660388484	1
0	7175	148.887563738474	1
0	7180	148.898660388484	1
0	7203	149.219824362053	1
0	7232	149.898660388484	1
0	7261	150.458860869431	1
0	7268	150.552616257041	1
0	7293	150.898660388484	1
0	7319	151.25119726312	1
0	7354	151.898660388484	1
0	7400	152.898660388484	1
0	7449	153.898660388484	1
0	7486	154.720591101897	1
0	7495	154.898660388484	1
0	7532	155.898660388484	1
0	7538	155.912906876116	1
0	7560	156.625863355244	1
0	7575	156.898660388484	1
0	7592	157.032276221991	1
0	7598	157.134578003001	1
0	7618	157.718038175306	1
0	7630	157.898660388484	1
0	7676	158.898660388484	1
0	7682	158.902065911653	1
0	7713	159.878357934622	1
0	7722	159.898660388484	1
0	7739	160.276306329271	1
0	7756	160.794534177375	1
0	7765	160.898660388484	1
0	7805	161.898660388484	1
0	7848	162.848586661239	1
0	7857	162.898660388484	1
0	7906	163.898660388484	1
0	7961	164.898660388484	1
0	7998	165.898660388484	1
0	8018	166.299596790598	1
0	8024	166.474224587078	1
0	8047	166.898660388484	1
0	8087	167.556326471562	1
0	8090	167.596748049215	1
0	8105	167.898660388484	1
0	8129	168.166184163086	1
0	8157	168.898660388484	1
0	8200	169.898660388484	1
0	8243	170.549252436278	1
0	8261	170.898660388484	1
0	8275	171.024461875063	1
0	8285	171.216419777014	1
0	8298	171.613898856937	1
0	8307	171.837497915272	1
0	8316	171.898660388484	1
0	8347	172.772078331621	1
0	8356	172.898660388484	1
0	8374	173.10615341468	1
0	8396	173.898660388484	1
0	8414	174.108715823008	1
0	8433	174.675417782858	1
0	8445	174.898660388484	1
0	8466	175.087118360731	1
0	8497	175.898660388484	1
0	8514	175.985520727168	1
0	8543	176.898660388484	1
0	8583	177.709912612636	1
0	8592	177.898660388484	1
0	8623	178.724871571006	1
0	8632	178.898660388484	1
0	8669	179.898660388484	1
0	8706	180.898660388484	1
0	8767	181.898660388484	1
0	8794	182.464020049046	1
0	8801	182.661751816987	1
0	8813	182.898660388484	1
0	8862	183.898660388484	1
0	8905	184.898660388484	1
0	8933	185.84963598926	1
0	8942	185.898660388484	1
0	8966	186.360131151963	1
0	8973	186.597797023069	1
0	8979	186.757741236422	1
0	8991	186.898660388484	1
0	9040	187.898660388484	1
0	9046	187.91271576999	1
0	9086	188.878151569687	1
0	9095	188.898660388484	1
0	9147	189.898660388484	1
0	9202	190.898660388484	1
0	9220	191.147120656311	1
0	9236	191.760087924993	1
0	9242	191.820762225168	1
0	9251	191.898660388484	1
0	9265	191.952973824997	1
0	9275	192.375663613064	1
0	9294	192.898660388484	1
0	9334	193.626612273723	1
0	9349	193.898660388484	1
0	9386	194.710160462016	1
0	9398	194.898660388484	1
0	9419	195.101845001898	1
0	9422	195.218915041226	1
0	9453	195.898660388484	1
0	9505	196.898660388484	1
0	9525	197.010569377113	1
0	9560	197.898660388484	1
0	9574	198.017842065503	1
0	9609	198.898660388484	1
0	9646	199.898660388484	1
1	3	0.353159139138	1
1	4	0.353159139138	0
1	48	1.898660388484	1
1	49	1.898660388484	0
1	67	2.576683561174	1
1	87	2.898660388484	0
1	89	2.898660388484	1
1	137	3.898660388484	0
1	139	3.898660388484	1
1	174	4.898660388484	0
1	176	4.898660388484	1
1	200	5.174937647023	2
1	214	5.898660388484	1
1	216	5.898660388484	2
1	256	6.788939721916	3
1	266	6.898660388484	2
1	268	6.898660388484	3
1	299	7.661260916958	4
1	315	7.898660388484	3
1	317	7.898660388484	4
1	347	8.399088208714	5
1	373	8.898660388484	4
1	375	8.898660388484	5
1	389	9.008170631897	6
1	425	9.898660388484	5
1	427	9.898660388484	6
1	441	9.969551570963	7
1	474	10.898660388484	6
1	476	10.898660388484	7
1	503	11.114690525663	8
1	520	11.898660388484	7
1	522	11.898660388484	8
1	544	12.213602993214	9
1	556	12.449809699297	10
1	569	12.82877166358	11
1	576	12.898660388484	10
1	578	12.898660388484	11
1	608	13.221884220884	12
1	634	13.898660388484	11
1	636	13.898660388484	12
1	680	14.898660388484	11
1	682	14.898660388484	12
1	729	15.898660388484	11
1	731	15.898660388484	12
1	781	16.898660388484	11
1	783	16.898660388484	12
1	820	17.67638106706	13
1	827	17.898660388484	12
1	829	17.898660388484	13
1	870	18.898660388484	12
1	872	18.898660388484	13
1	897	19.496199986344	14
1	916	19.898660388484	13
1	918	19.898660388484	14
1	936	20.208783579677	15
1	962	20.898660388484	14
1	964	20.898660388484	15
1	1001	21.553028851829	16
1	1014	21.898660388484	15
1	1016	21.898660388484	16
1	1056	22.719902378378	17
1	1063	22.898660388484	16
1	1065	22.898660388484	17
1	1093	23.555999910348	18
1	1109	23.898660388484	17
1	1111	23.898660388484	18
1	1132	24.267247847565	19
1	1155	24.898660388484	18
1	1157	24.898660388484	19
1	1184	25.125143488639	20
1	1187	25.2664742022	21
1	1201	25.898660388484	20
1	1203	25.898660388484	21
1	1227	26.308254856379	22
1	1243	26.615772580141	23
1	1259	26.898660388484	22
1	1261	26.898660388484	23
1	1294	27.420569979942	24
1	1307	27.735291640797	25
1	1317	27.898660388484	24
1	1319	27.898660388484	25
1	1336	28.075638379032	26
1	1346	28.36165935154	27
1	1369	28.898660388484	26
1	1371	28.898660388484	27
1	1392	29.220052319369	28
1	1395	29.47247231226	29
1	1415	29.898660388484	28
1	1417	29.898660388484	29
1	1455	30.898660388484	28
1	1457	30.898660388484	29
1	1491	31.693979210734	30
1	1498	31.898660388484	29
1	1500	31.898660388484	30
1	1524	32.224701707351	31
1	1547	32.898660388484	30
1	1549	32.898660388484	31
1	1587	33.898660388484	30
1	1589	33.898660388484	31
1	1613	34.354201103419	32
1	1633	34.898660388484	31
1	1635	34.898660388484	32
1	1659	35.116068874715	33
1	1682	35.898660388484	32
1	1684	35.898660388484	33
1	1701	36.080522440209	34
1	1740	36.898660388484	33
1	1742	36.898660388484	34
1	1775	37.339565957473	35
1	1791	37.776593971247	36
1	1794	37.810797389605	37
1	1804	37.898660388484	36
1	1806	37.898660388484	37
1	1846	38.869806774986	38
1	1856	38.898660388484	37
1	1858	38.898660388484	38
1	1888	39.327979658944	39
1	1905	39.898660388484	38
1	1907	39.898660388484	39
1	1945	40.898660388484	38
1	1947	40.898660388484	39
1	1967	40.968877236871	40
1	1990	41.602339854594	41
1	1997	41.898660388484	40
1	1999	41.898660388484	41
1	2034	42.898660388484	40
1	2036	42.898660388484	41
1	2076	43.628248671697	42
1	2086	43.898660388484	41
1	2088	43.898660388484	42
1	2132	44.898660388484	41
1	2134	44.898660388484	42
1	2161	45.274967773024	43
1	2180	45.819824901169	44
1	2187	45.898660388484	43
1	2189	45.898660388484	44
1	2233	46.898660388484	43
1	2235	46.898660388484	44
1	2267	47.898660388484	43
1	2269	47.898660388484	44
1	2310	48.898660388484	43
1	2312	48.898660388484	44
1	2365	49.529785493073	45
1	2381	49.898660388484	44
1	2383	49.898660388484	45
1	2424	50.898660388484	44
1	2426	50.898660388484	45
1	2473	51.898660388484	44
1	2475	51.898660388484	45
1	2505	52.41432978148	46
1	2519	52.898660388484	45
1	2521	52.898660388484	46
1	2562	53.898660388484	45
1	2564	53.898660388484	46
1	2582	54.41150174897	47
1	2617	54.898660388484	46
1	2619	54.898660388484	47
1	2625	54.919366871657	48
1	2647	55.521045858181	49
1	2663	55.898660388484	48
1	2665	55.898660388484	49
1	2718	56.898660388484	48
1	2720	56.898660388484	49
1	2764	57.898660388484	48
1	2766	57.898660388484	49
1	2807	58.898660388484	48
1	2809	58.898660388484	49
1	2823	59.035524538718	50
1	2856	59.898660388484	49
1	2858	59.898660388484	50
1	2872	60.165880084629	51
1	2878	60.410371106672	52
1	2908	60.898660388484	51
1	2910	60.898660388484	52
1	2937	61.498275540286	53
1	2951	61.898660388484	52
1	2953	61.898660388484	53
1	2967	61.981913927776	54
1	2990	62.86941585626	55
1	2993	62.869471208155	56
1	3000	62.898660388484	55
1	3002	62.898660388484	56
1	3043	63.898660388484	55
1	3045	63.898660388484	56
1	3086	64.898660388484	55
1	3088	64.898660388484	56
1	3094	64.930292449036	57
1	3112	65.173010942708	58
1	3135	65.898660388484	57
1	3137	65.898660388484	58
1	3184	66.898660388484	57
1	3186	66.898660388484	58
1	3236	67.898660388484	57
1	3238	67.898660388484	58
1	3262	68.117491220131	59
1	3291	68.898660388484	58
1	3293	68.898660388484	59
1	3307	69.001276876164	60
1	3314	69.32547598965	61
1	3320	69.467118024445	62
1	3343	69.898660388484	61
1	3345	69.898660388484	62
1	3400	70.728930697932	63
1	3410	70.898660388484	62
1	3412	70.898660388484	63
1	3450	71.898660388484	62
1	3452	71.898660388484	63
1	3482	72.17848547436	64
1	3502	72.898660388484	63
1	3504	72.898660388484	64
1	3522	73.056700553078	65
1	3528	73.402220136787	66
1	3562	73.677748073825	67
1	3569	73.898660388484	66
1	3571	73.898660388484	67
1	3609	74.898660388484	66
1	3611	74.898660388484	67
1	3629	75.215576788302	68
1	3635	75.416018983388	69
1	3658	75.898660388484	68
1	3660	75.898660388484	69
1	3681	76.134265463496	70
1	3704	76.898660388484	69
1	3706	76.898660388484	70
1	3724	77.066877318765	71
1	3727	77.3304544316	72
1	3744	77.898660388484	71
1	3746	77.898660388484	72
1	3778	78.898660388484	71
1	3780	78.898660388484	72
1	3794	79.441343205983	73
1	3818	79.898660388484	72
1	3820	79.898660388484	73
1	3838	80.10718569262	74
1	3844	80.453938996409	75
1	3870	80.898660388484	74
1	3872	80.898660388484	75
1	3910	81.898660388484	74
1	3912	81.898660388484	75
1	3940	82.344040694505	76
1	3954	82.898660388484	75
1	3956	82.898660388484	76
1	3993	83.744716391465	77
1	4000	83.891941428778	78
1	4003	83.898660388484	77
1	4005	83.898660388484	78
1	4031	84.450949098769	79
1	4054	84.898660388484	78
1	4056	84.898660388484	79
1	4076	85.166994416763	80
1	4093	85.898660388484	79
1	4095	85.898660388484	80
1	4112	86.0091307196	81
1	4130	86.898660388484	80
1	4132	86.898660388484	81
1	4163	87.564425079955	82
1	4173	87.898660388484	81
1	4175	87.898660388484	82
1	4192	88.074415913804	83
1	4212	88.59738356746	84
1	4221	88.739509078853	85
1	4231	88.898660388484	84
1	4233	88.898660388484	85
1	4289	89.898660388484	84
1	4291	89.898660388484	85
1	4332	90.898660388484	84
1	4334	90.898660388484	85
1	4374	91.79436885786	86
1	4384	91.898660388484	85
1	4386	91.898660388484	86
1	4439	92.898660388484	85
1	4441	92.898660388484	86
1	4461	93.092814493465	87
1	4493	93.836397685241	88
1	4500	93.898660388484	87
1	4502	93.898660388484	88
1	4558	94.898660388484	87
1	4560	94.898660388484	88
1	4591	95.590112330265	89
1	4597	95.786574216162	90
1	4603	95.858993326277	91
1	4606	95.868728735618	92
1	4613	95.898660388484	91
1	4615	95.898660388484	92
1	4632	96.187312583497	93
1	4655	96.650702611037	94
1	4674	96.898660388484	93
1	4676	96.898660388484	94
1	4711	97.898660388484	93
1	4713	97.898660388484	94
1	4769	98.898660388484	93
1	4771	98.898660388484	94
1	4791	99.24315121982	95
1	4818	99.898660388484	94
1	4820	99.898660388484	95
1	4837	100.056049581006	96
1	4879	100.898660388484	95
1	4881	100.898660388484	96
1	4907	101.104338685962	97
1	4913	101.20113615827	98
1	4940	101.898660388484	97
1	4942	101.898660388484	98
1	4974	102.898660388484	97
1	4976	102.898660388484	98
1	5010	103.615152588778	99
1	5026	103.898660388484	98
1	5028	103.898660388484	99
1	5068	104.786416283725	100
1	5075	104.898660388484	99
1	5077	104.898660388484	100
1	5094	105.060879805729	101
1	5097	105.235874853947	102
1	5100	105.245689290345	103
1	5127	105.898660388484	102
1	5129	105.898660388484	103
1	5169	106.837245413138	104
1	5176	106.898660388484	103
1	5178	106.898660388484	104
1	5184	106.939797306142	105
1	5216	107.898660388484	104
1	5218	107.898660388484	105
1	5259	108.898660388484	104
1	5261	108.898660388484	105
1	5305	109.898660388484	104
1	5307	109.898660388484	105
1	5321	109.97373987854	106
1	5357	110.898660388484	105
1	5359	110.898660388484	106
1	5397	111.898660388484	105
1	5399	111.898660388484	106
1	5446	112.898660388484	105
1	5448	112.898660388484	106
1	5462	112.955519535866	107
1	5471	113.160371803013	108
1	5501	113.898660388484	107
1	5503	113.898660388484	108
1	5509	113.928834380404	109
1	5520	114.032505217046	110
1	5556	114.898660388484	109
1	5558	114.898660388484	110
1	5611	115.898660388484	109
1	5613	115.898660388484	110
1	5633	116.068799404318	111
1	5636	116.101803389374	112
1	5642	116.351754206024	113
1	5659	116.643700277753	114
1	5684	116.898660388484	113
1	5686	116.898660388484	114
1	5703	117.115668365525	115
1	5723	117.584589692798	116
1	5736	117.898660388484	115
1	5738	117.898660388484	116
1	5755	117.955751413599	117
1	5776	118.898660388484	116
1	5778	118.898660388484	117
1	5803	119.600934840673	118
1	5819	119.898660388484	117
1	5821	119.898660388484	118
1	5838	120.05996276816	119
1	5841	120.400199987773	120
1	5848	120.473251644928	121
1	5858	120.749556837856	122
1	5868	120.898660388484	121
1	5870	120.898660388484	122
1	5908	121.835760149013	123
1	5918	121.898660388484	122
1	5920	121.898660388484	123
1	5958	122.898660388484	122
1	5960	122.898660388484	123
1	5993	123.759498719681	124
1	6007	123.898660388484	123
1	6009	123.898660388484	124
1	6026	124.206638622278	125
1	6045	124.657877420769	126
1	6062	124.898660388484	125
1	6064	124.898660388484	126
1	6070	124.922659694107	127
1	6108	125.898660388484	126
1	6110	125.898660388484	127
1	6145	126.898660388484	126
1	6147	126.898660388484	127
1	6177	127.691804176945	128
1	6188	127.898660388484	127
1	6190	127.898660388484	128
1	6207	127.978713272329	129
1	6210	128.090657813473	130
1	6220	128.763040715511	131
1	6231	128.898660388484	130
1	6233	128.898660388484	131
1	6280	129.898660388484	130
1	6282	129.898660388484	131
1	6317	130.898660388484	130
1	6319	130.898660388484	131
1	6333	130.984254898711	132
1	6345	131.302309443902	133
1	6361	131.77118759953	134
1	6375	131.898660388484	133
1	6377	131.898660388484	134
1	6391	132.042743391212	135
1	6400	132.231308115463	136
1	6410	132.582629397005	137
1	6433	132.898660388484	136
1	6435	132.898660388484	137
1	6479	133.898660388484	136
1	6481	133.898660388484	137
1	6514	134.753855278359	138
1	6517	134.778783374087	139
1	6528	134.898660388484	138
1	6530	134.898660388484	139
1	6568	135.898660388484	138
1	6570	135.898660388484	139
1	6587	135.981340718796	140
1	6603	136.58249536518	141
1	6614	136.898660388484	140
1	6616	136.898660388484	141
1	6622	136.928928692675	142
1	6669	137.898660388484	141
1	6671	137.898660388484	142
1	6691	138.043386924391	143
1	6724	138.898660388484	142
1	6726	138.898660388484	143
1	6764	139.898660388484	142
1	6766	139.898660388484	143
1	6783	140.300863715147	144
1	6800	140.822975019558	145
1	6807	140.898660388484	144
1	6809	140.898660388484	145
1	6859	141.898660388484	144
1	6861	141.898660388484	145
1	6905	142.898660388484	144
1	6907	142.898660388484	145
1	6948	143.898660388484	144
1	6950	143.898660388484	145
1	6980	144.542383330457	146
1	6986	144.592298932883	147
1	6996	144.884849534074	148
1	6999	144.898660388484	147
1	7001	144.898660388484	148
1	7025	145.475684754479	149
1	7036	145.898660388484	148
1	7038	145.898660388484	149
1	7044	145.90412578327	150
1	7069	146.618759970648	151
1	7082	146.898660388484	150
1	7084	146.898660388484	151
1	7124	147.759803304901	152
1	7131	147.898660388484	151
1	7133	147.898660388484	152
1	7175	148.887563738474	153
1	7178	148.898660388484	152
1	7180	148.898660388484	153
1	7203	149.219824362053	154
1	7230	149.898660388484	153
1	7232	149.898660388484	154
1	7261	150.458860869431	155
1	7268	150.552616257041	156
1	7291	150.898660388484	155
1	7293	150.898660388484	156
1	7319	151.25119726312	157
1	7352	151.898660388484	156
1	7354	151.898660388484	157
1	7398	152.898660388484	156
1	7400	152.898660388484	157
1	7447	153.898660388484	156
1	7449	153.898660388484	157
1	7486	154.720591101897	158
1	7493	154.898660388484	157
1	7495	154.898660388484	158
1	7530	155.898660388484	157
1	7532	155.898660388484	158
1	7538	155.912906876116	159
1	7560	156.625863355244	160
1	7573	156.898660388484	159
1	7575	156.898660388484	160
1	7592	157.032276221991	161
1	7598	157.134578003001	162
1	7618	157.718038175306	163
1	7628	157.898660388484	162
1	7630	157.898660388484	163
1	7674	158.898660388484	162
1	7676	158.898660388484	163
1	7682	158.902065911653	164
1	7713	159.878357934622	165
1	7720	159.898660388484	164
1	7722	159.898660388484	165
1	7739	160.276306329271	166
1	7756	160.794534177375	167
1	7763	160.898660388484	166
1	7765	160.898660388484	167
1	7803	161.898660388484	166
1	7805	161.898660388484	167
1	7848	162.848586661239	168
1	7855	162.898660388484	167
1	7857	162.898660388484	168
1	7904	163.898660388484	167
1	7906	163.898660388484	168
1	7959	164.898660388484	167
1	7961	164.898660388484	168
1	7996	165.898660388484	167
1	7998	165.898660388484	168
1	8018	166.299596790598	169
1	8024	166.474224587078	170
1	8045	166.898660388484	169
1	8047	166.898660388484	170
1	8087	167.556326471562	171
1	8090	167.596748049215	172
1	8103	167.898660388484	171
1	8105	167.898660388484	172
1	8129	168.166184163086	173
1	8155	168.898660388484	172
1	8157	168.898660388484	173
1	8198	169.898660388484	172
1	8200	169.898660388484	173
1	8243	170.549252436278	174
1	8259	170.898660388484	173
1	8261	170.898660388484	174
1	8275	171.024461875063	175
1	8285	171.216419777014	176
1	8298	171.613898856937	177
1	8307	171.837497915272	178
1	8314	171.898660388484	177
1	8316	171.898660388484	178
1	8347	172.772078331621	179
1	8354	172.898660388484	178
1	8356	172.898660388484	179
1	8374	173.10615341468	180
1	8394	173.898660388484	179
1	8396	173.898660388484	180
1	8414	174.108715823008	181
1	8433	174.675417782858	182
1	8443	174.898660388484	181
1	8445	174.898660388484	182
1	8466	175.087118360731	183
1	8495	175.898660388484	182
1	8497	175.898660388484	183
1	8514	175.985520727168	184
1	8541	176.898660388484	183
1	8543	176.898660388484	184
1	8583	177.709912612636	185
1	8590	177.898660388484	184
1	8592	177.898660388484	185
1	8623	178.724871571006	186
1	8630	178.898660388484	185
1	8632	178.898660388484	186
1	8667	179.898660388484	185
1	8669	179.898660388484	186
1	8704	180.898660388484	185
1	8706	180.898660388484	186
1	8765	181.898660388484	185
1	8767	181.898660388484	186
1	8794	182.464020049046	187
1	8801	182.661751816987	188
1	8811	182.898660388484	187
1	8813	182.898660388484	188
1	8860	183.898660388484	187
1	8862	183.898660388484	188
1	8903	184.898660388484	187
1	8905	184.898660388484	188
1	8933	185.84963598926	189
1	8940	185.898660388484	188
1	8942	185.898660388484	189
1	8966	186.360131151963	190
1	8973	186.597797023069	191
1	8979	186.757741236422	192
1	8989	186.898660388484	191
1	8991	186.898660388484	192
1	9038	187.898660388484	191
1	9040	187.898660388484	192
1	9046	187.91271576999	193
1	9086	188.878151569687	194
1	9093	188.898660388484	193
1	9095	188.898660388484	194
1	9145	189.898660388484	193
1	9147	189.898660388484	194
1	9200	190.898660388484	193
1	9202	190.898660388484	194
1	9220	191.147120656311	195
1	9236	191.760087924993	196
1	9242	191.820762225168	197
1	9249	191.898660388484	196
1	9251	191.898660388484	197
1	9265	191.952973824997	198
1	9275	192.375663613064	199
1	9292	192.898660388484	198
1	9294	192.898660388484	199
1	9334	193.626612273723	200
1	9347	193.898660388484	199
1	9349	193.898660388484	200
1	9386	194.710160462016	201
1	9396	194.898660388484	200
1	9398	194.898660388484	201
1	9419	195.101845001898	202
1	9422	195.218915041226	203
1	9451	195.898660388484	202
1	9453	195.898660388484	203
1	9503	196.898660388484	202
1	9505	196.898660388484	203
1	9525	197.010569377113	204
1	9558	197.898660388484	203
1	9560	197.898660388484	204
1	9574	198.017842065503	205
1	9607	198.898660388484	204
1	9609	198.898660388484	205
1	9644	199.898660388484	204
1	9646	199.898660388484	205
2	7	0.485128163722	1
2	11	0.543512832815	1
2	26	1.353259139138	1
2	92	2.898760388484	1
2	130	3.858425112743	1
2	142	3.898760388484	1
2	153	4.009655966408	1
2	179	4.898760388484	1
2	219	5.898760388484	1
2	234	6.04997022435	1
2	253	6.78493464554	1
2	271	6.898760388484	1
2	305	7.806366519889	1
2	320	7.898760388484	1
2	344	8.341932240117	1
2	378	8.898760388484	1
2	415	9.677222424741	1
2	430	9.898760388484	1
2	479	10.898760388484	1
2	525	11.898760388484	1
2	563	12.555137446019	1
2	581	12.898760388484	1
2	615	13.49119900579	1
2	639	13.898760388484	1
2	685	14.898760388484	1
2	734	15.898760388484	1
2	771	16.684145647844	1
2	786	16.898760388484	1
2	832	17.898760388484	1
2	875	18.898760388484	1
2	903	19.671335539696	1
2	909	19.72866246612	1
2	921	19.898760388484	1
2	939	20.328609352761	1
2	942	20.348799480907	1
2	945	20.388775779965	1
2	967	20.898760388484	1
2	981	20.971654168832	1
2	991	21.417073630752	1
2	1019	21.898760388484	1
2	1033	22.072719915116	1
2	1068	22.898760388484	1
2	1114	23.898760388484	1
2	1145	24.576631698201	1
2	1160	24.898760388484	1
2	1163	24.90197211373	1
2	1166	24.911372864394	1
2	1206	25.898760388484	1