version 3
run General-0-20250518-18:04:17-34768
attr configname General
attr datetime 20250518-18:04:17
attr datetimef 20250518-180417
attr experiment General
attr inifile omnetpp.ini
attr iterationvars ""
attr iterationvarsd ""
attr iterationvarsf ""
attr measurement ""
attr network Network
attr processid 34768
attr repetition 0
attr replication #0
attr resultdir results
attr runnumber 0
attr seedset 0
config network Network
config sim-time-limit 200s
config "Network.node[{0, 1, 2, 3, 4, 6, 7}].app.interArrivalTime" exponential(1.5)
config "Network.node[{0, 1, 2, 3, 4, 6, 7}].app.packetByteSize" 125000
config "Network.node[{0, 1, 2, 3, 4, 6, 7}].app.destination" 5

vector 0 Network.node[7].lnk[0] "Lnk use" ETV
vector 1 Network.node[7].lnk[0] "Buffer Size" ETV
vector 2 Network.node[6].lnk[0] "Lnk use" ETV
vector 3 Network.node[6].lnk[0] "Buffer Size" ETV
vector 4 Network.node[0].lnk[0] "Lnk use" ETV
vector 5 Network.node[0].lnk[0] "Buffer Size" ETV
vector 6 Network.node[4].lnk[0] "Lnk use" ETV
vector 7 Network.node[4].lnk[0] "Buffer Size" ETV
vector 8 Network.node[6].lnk[1] "Lnk use" ETV
vector 9 Network.node[5].lnk[1] "Lnk use" ETV
vector 10 Network.node[5].app "Delay Source 6" ETV
vector 11 Network.node[5].app "HopCount Source 6" ETV
vector 12 Network.node[7].lnk[1] "Lnk use" ETV
vector 13 Network.node[3].lnk[1] "Lnk use" ETV
vector 14 Network.node[3].lnk[0] "Lnk use" ETV
vector 15 Network.node[3].lnk[0] "Buffer Size" ETV
vector 16 Network.node[1].lnk[0] "Lnk use" ETV
vector 17 Network.node[1].lnk[0] "Buffer Size" ETV
vector 18 Network.node[2].lnk[0] "Lnk use" ETV
vector 19 Network.node[2].lnk[0] "Buffer Size" ETV
vector 20 Network.node[2].lnk[1] "Lnk use" ETV
vector 21 Network.node[5].app "Delay Source 7" ETV
vector 22 Network.node[5].app "HopCount Source 7" ETV
vector 23 Network.node[0].lnk[1] "Lnk use" ETV
vector 24 Network.node[1].lnk[1] "Lnk use" ETV
vector 25 Network.node[5].app "Delay Source 0" ETV
vector 26 Network.node[5].app "HopCount Source 0" ETV
vector 27 Network.node[5].app "Delay Source 1" ETV
vector 28 Network.node[5].app "HopCount Source 1" ETV
vector 29 Network.node[5].app "Delay Source 2" ETV
vector 30 Network.node[5].app "HopCount Source 2" ETV
vector 31 Network.node[5].app "Delay Source 4" ETV
vector 32 Network.node[5].app "HopCount Source 4" ETV
vector 33 Network.node[5].app "Delay Source 3" ETV
vector 34 Network.node[5].app "HopCount Source 3" ETV
0	3	0.529738708706	1
0	37	2.347940582726	1
0	66	3.347940582726	1
0	92	3.86502534176	1
0	111	4.347940582726	1
0	155	5.347940582726	1
0	195	6.347940582726	1
0	226	7.347940582726	1
0	250	7.762406470533	1
0	263	8.347940582726	1
0	300	9.347940582726	1
0	339	10.183409582872	1
0	347	10.347940582726	1
0	381	11.347940582726	1
0	394	11.491891375435	1
0	424	12.347940582726	1
0	443	12.598632313069	1
0	479	13.347940582726	1
0	489	13.512255947844	1
0	525	14.347940582726	1
0	554	14.954327356443	1
0	565	15.347940582726	1
0	605	16.347940582726	1
0	624	16.672035788493	1
0	644	17.347940582726	1
0	673	18.320404489819	1
0	678	18.347940582726	1
0	697	18.674714548943	1
0	722	19.243157495367	1
0	727	19.347940582726	1
0	753	19.832826331323	1
0	776	20.347940582726	1
0	822	21.347940582726	1
0	860	22.347940582726	1
0	900	23.347940582726	1
0	946	24.347940582726	1
0	989	25.347940582726	1
0	1032	26.347940582726	1
0	1042	26.514571600587	1
0	1072	27.347940582726	1
0	1106	28.347940582726	1
0	1131	29.244299979514	1
0	1143	29.347940582726	1
0	1178	30.313175369514	1
0	1183	30.347940582726	1
0	1226	31.347940582726	1
0	1267	32.329543277742	1
0	1272	32.347940582726	1
0	1318	33.347940582726	1
0	1346	34.079853567565	1
0	1355	34.347940582726	1
0	1387	35.33399986552	1
0	1392	35.347940582726	1
0	1432	36.347940582726	1
0	1438	36.400871771346	1
0	1475	37.347940582726	1
0	1494	37.687715232957	1
0	1501	37.899711303298	1
0	1521	38.347940582726	1
0	1555	39.347940582726	1
0	1561	39.462382284567	1
0	1581	39.923658870211	1
0	1603	40.347940582726	1
0	1641	41.130854969913	1
0	1652	41.347940582726	1
0	1662	41.602937461195	1
0	1687	42.113457568548	1
0	1696	42.347940582726	1
0	1706	42.54248902731	1
0	1739	43.347940582726	1
0	1756	43.830078479053	1
0	1767	44.20870846839	1
0	1775	44.347940582726	1
0	1812	45.347940582726	1
0	1847	46.347940582726	1
0	1887	47.347940582726	1
0	1897	47.540968816101	1
0	1919	48.337052561026	1
0	1924	48.347940582726	1
0	1964	49.347940582726	1
0	2004	50.347940582726	1
0	2035	51.347940582726	1
0	2048	51.531301655128	1
0	2075	52.347940582726	1
0	2091	52.674103312072	1
0	2121	53.347940582726	1
0	2150	54.120783660313	1
0	2164	54.347940582726	1
0	2207	55.347940582726	1
0	2248	56.009348936209	1
0	2256	56.347940582726	1
0	2272	56.66489095687	1
0	2275	56.716196084407	1
0	2302	57.347940582726	1
0	2339	58.304710162479	1
0	2348	58.347940582726	1
0	2382	58.991969488416	1
0	2397	59.347940582726	1
0	2425	60.347940582726	1
0	2461	61.347940582726	1
0	2473	61.453315855306	1
0	2507	62.347940582726	1
0	2513	62.40350978189	1
0	2541	63.347940582726	1
0	2571	64.347940582726	1
0	2613	65.347940582726	1
0	2619	65.442373007545	1
0	2646	66.347940582726	1
0	2685	67.347940582726	1
0	2708	67.912451659535	1
0	2727	68.347940582726	1
0	2747	68.729737351752	1
0	2766	69.347940582726	1
0	2802	70.347940582726	1
0	2829	71.347940582726	1
0	2869	72.347940582726	1
0	2903	73.347940582726	1
0	2956	74.294678239608	1
0	2961	74.347940582726	1
0	3001	75.347940582726	1
0	3042	76.347940582726	1
0	3082	77.347940582726	1
0	3125	78.347940582726	1
0	3141	78.621494672218	1
0	3165	79.347940582726	1
0	3205	80.347940582726	1
0	3232	81.347940582726	1
0	3242	81.617252623453	1
0	3284	82.347940582726	1
0	3290	82.379050307483	1
0	3316	83.28156878727	1
0	3321	83.347940582726	1
0	3364	84.347940582726	1
0	3414	85.347940582726	1
0	3451	86.347940582726	1
0	3493	87.347940582726	1
0	3523	88.347940582726	1
0	3533	88.553286808075	1
0	3562	89.347940582726	1
0	3590	90.248820126941	1
0	3598	90.347940582726	1
0	3608	90.615556660005	1
0	3644	91.347940582726	1
0	3679	92.247413310427	1
0	3684	92.347940582726	1
0	3713	92.972870891661	1
0	3718	93.347940582726	1
0	3752	94.304123784387	1
0	3755	94.30420681223	1
0	3760	94.347940582726	1
0	3794	95.347940582726	1
0	3837	96.347940582726	1
0	3874	97.347940582726	1
0	3880	97.395438673551	1
0	3898	97.759516414059	1
0	3918	98.347940582726	1
0	3961	99.347940582726	1
0	4001	100.347940582726	1
0	4040	101.347940582726	1
0	4078	102.176236830194	1
0	4083	102.347940582726	1
0	4130	103.347940582726	1
0	4140	103.501915314243	1
0	4155	103.988213984473	1
0	4165	104.200677036666	1
0	4177	104.347940582726	1
0	4217	105.347940582726	1
0	4267	106.093396046897	1
0	4275	106.347940582726	1
0	4312	107.347940582726	1
0	4354	108.267728211538	1
0	4359	108.347940582726	1
0	4396	109.347940582726	1
0	4406	109.585050829615	1
0	4424	110.103330205178	1
0	4454	110.347940582726	1
0	4467	110.516622110735	1
0	4488	111.347940582726	1
0	4528	112.347940582726	1
0	4542	112.82336518245	1
0	4556	113.124028475079	1
0	4568	113.347940582726	1
0	4602	114.201398195241	1
0	4610	114.347940582726	1
0	4643	115.347940582726	1
0	4653	115.600315978144	1
0	4668	115.995681647397	1
0	4679	116.347940582726	1
0	4709	117.347940582726	1
0	4737	118.347940582726	1
0	4763	119.162014808971	1
0	4774	119.347940582726	1
0	4803	120.160778538926	1
0	4808	120.347940582726	1
0	4821	120.680908494609	1
0	4858	121.347940582726	1
0	4892	122.347940582726	1
0	4925	123.347940582726	1
0	4942	123.516061041753	1
0	4962	124.347940582726	1
0	4999	125.347940582726	1
0	5015	125.617074587194	1
0	5022	125.837912143164	1
0	5041	126.347940582726	1
0	5057	126.67642364815	1
0	5086	127.347940582726	1
0	5106	127.75049162514	1
0	5122	128.347940582726	1
0	5150	129.013696079396	1
0	5158	129.347940582726	1
0	5186	130.347940582726	1
0	5221	131.346637619928	1
0	5226	131.347940582726	1
0	5258	132.111623870702	1
0	5263	132.347940582726	1
0	5290	132.896075351186	1
0	5307	133.109263618275	1
0	5315	133.347940582726	1
0	5361	134.347940582726	1
0	5410	135.347940582726	1
0	5444	136.347940582726	1
0	5484	137.347940582726	1
0	5504	137.691553286786	1
0	5533	138.347940582726	1
0	5579	139.347940582726	1
0	5595	139.639221740193	1
0	5625	140.347940582726	1
0	5655	140.754596527857	1
0	5680	141.347940582726	1
0	5726	142.347940582726	1
0	5760	143.347940582726	1
0	5766	143.385168495392	1
0	5776	143.679861324237	1
0	5786	143.788489989409	1
0	5789	143.80309310342	1
0	5807	144.280968875239	1
0	5815	144.347940582726	1
0	5847	144.976053916549	1
0	5864	145.347940582726	1
0	5901	146.347940582726	1
0	5938	147.347940582726	1
0	5987	148.347940582726	1
0	6007	148.864726829724	1
0	6027	149.347940582726	1
0	6061	150.084074371502	1
0	6073	150.347940582726	1
0	6122	151.347940582726	1
0	6144	151.656508028936	1
0	6154	151.801704237398	1
0	6171	152.347940582726	1
0	6214	153.347940582726	1
0	6245	154.347940582726	1
0	6281	155.347940582726	1
0	6287	155.42272888316	1
0	6321	156.347940582726	1
0	6363	157.179624425581	1
0	6368	157.347940582726	1
0	6381	157.591319708586	1
0	6388	157.853812280913	1
0	6391	157.86853393551	1
0	6411	158.347940582726	1
0	6454	159.347940582726	1
0	6489	160.2558681197	1
0	6494	160.347940582726	1
0	6500	160.409695959205	1
0	6531	161.347940582726	1
0	6566	162.347940582726	1
0	6603	163.347940582726	1
0	6642	164.347940582726	1
0	6668	164.960609817801	1
0	6679	165.347940582726	1
0	6722	166.347940582726	1
0	6762	167.347940582726	1
0	6796	168.347940582726	1
0	6835	169.347940582726	1
0	6841	169.43327930379	1
0	6859	169.74055770451	1
0	6881	170.347940582726	1
0	6905	170.893251570597	1
0	6916	171.04875782556	1
0	6921	171.347940582726	1
0	6967	172.347940582726	1
0	7013	173.347940582726	1
0	7050	174.103199106468	1
0	7053	174.152705084053	1
0	7065	174.347940582726	1
0	7075	174.527631309028	1
0	7096	174.965550416621	1
0	7124	175.347940582726	1
0	7137	175.673502548279	1
0	7167	176.347940582726	1
0	7173	176.376884539188	1
0	7201	176.93362712039	1
0	7213	177.347940582726	1
0	7240	178.347940582726	1
0	7267	179.347940582726	1
0	7273	179.401402261002	1
0	7304	180.089944152233	1
0	7309	180.347940582726	1
0	7319	180.600299981653	1
0	7322	180.709877467385	1
0	7340	181.124335256776	1
0	7348	181.347940582726	1
0	7381	182.347940582726	1
0	7402	182.753640223512	1
0	7418	183.347940582726	1
0	7459	184.347940582726	1
0	7502	185.347940582726	1
0	7512	185.639248079514	1
0	7537	186.30995793341	1
0	7545	186.347940582726	1
0	7577	186.986816131146	1
0	7588	187.347940582726	1
0	7594	187.383989541154	1
0	7625	188.347940582726	1
0	7663	189.347940582726	1
0	7700	190.347940582726	1
0	7735	191.347940582726	1
0	7751	191.537706265411	1
0	7769	191.968069908486	1
0	7772	192.135986720202	1
0	7784	192.347940582726	1
0	7806	193.144561073259	1
0	7815	193.347940582726	1
0	7855	194.347940582726	1
0	7898	195.347940582726	1
0	7925	196.347940582726	1
0	7935	196.476382348059	1
0	7960	196.953464165845	1
0	7968	197.347940582726	1
0	7984	197.656781399287	1
0	8006	198.06411508681	1
0	8015	198.346962173187	1
0	8020	198.347940582726	1
0	8041	198.8739440955	1
0	8066	199.347940582726	1
1	3	0.529738708706	1
1	4	0.529738708706	0
1	37	2.347940582726	1
1	38	2.347940582726	0
1	66	3.347940582726	1
1	67	3.347940582726	0
1	92	3.86502534176	1
1	109	4.347940582726	0
1	111	4.347940582726	1
1	153	5.347940582726	0
1	155	5.347940582726	1
1	193	6.347940582726	0
1	195	6.347940582726	1
1	224	7.347940582726	0
1	226	7.347940582726	1
1	250	7.762406470533	2
1	261	8.347940582726	1
1	263	8.347940582726	2
1	298	9.347940582726	1
1	300	9.347940582726	2
1	339	10.183409582872	3
1	345	10.347940582726	2
1	347	10.347940582726	3
1	379	11.347940582726	2
1	381	11.347940582726	3
1	394	11.491891375435	4
1	422	12.347940582726	3
1	424	12.347940582726	4
1	443	12.598632313069	5
1	477	13.347940582726	4
1	479	13.347940582726	5
1	489	13.512255947844	6
1	523	14.347940582726	5
1	525	14.347940582726	6
1	554	14.954327356443	7
1	563	15.347940582726	6
1	565	15.347940582726	7
1	603	16.347940582726	6
1	605	16.347940582726	7
1	624	16.672035788493	8
1	642	17.347940582726	7
1	644	17.347940582726	8
1	673	18.320404489819	9
1	676	18.347940582726	8
1	678	18.347940582726	9
1	697	18.674714548943	10
1	722	19.243157495367	11
1	725	19.347940582726	10
1	727	19.347940582726	11
1	753	19.832826331323	12
1	774	20.347940582726	11
1	776	20.347940582726	12
1	820	21.347940582726	11
1	822	21.347940582726	12
1	858	22.347940582726	11
1	860	22.347940582726	12
1	898	23.347940582726	11
1	900	23.347940582726	12
1	944	24.347940582726	11
1	946	24.347940582726	12
1	987	25.347940582726	11
1	989	25.347940582726	12
1	1030	26.347940582726	11
1	1032	26.347940582726	12
1	1042	26.514571600587	13
1	1070	27.347940582726	12
1	1072	27.347940582726	13
1	1104	28.347940582726	12
1	1106	28.347940582726	13
1	1131	29.244299979514	14
1	1141	29.347940582726	13
1	1143	29.347940582726	14
1	1178	30.313175369514	15
1	1181	30.347940582726	14
1	1183	30.347940582726	15
1	1224	31.347940582726	14
1	1226	31.347940582726	15
1	1267	32.329543277742	16
1	1270	32.347940582726	15
1	1272	32.347940582726	16
1	1316	33.347940582726	15
1	1318	33.347940582726	16
1	1346	34.079853567565	17
1	1353	34.347940582726	16
1	1355	34.347940582726	17
1	1387	35.33399986552	18
1	1390	35.347940582726	17
1	1392	35.347940582726	18
1	1430	36.347940582726	17
1	1432	36.347940582726	18
1	1438	36.400871771346	19
1	1473	37.347940582726	18
1	1475	37.347940582726	19
1	1494	37.687715232957	20
1	1501	37.899711303298	21
1	1519	38.347940582726	20
1	1521	38.347940582726	21
1	1553	39.347940582726	20
1	1555	39.347940582726	21
1	1561	39.462382284567	22
1	1581	39.923658870211	23
1	1601	40.347940582726	22
1	1603	40.347940582726	23
1	1641	41.130854969913	24
1	1650	41.347940582726	23
1	1652	41.347940582726	24
1	1662	41.602937461195	25
1	1687	42.113457568548	26
1	1694	42.347940582726	25
1	1696	42.347940582726	26
1	1706	42.54248902731	27
1	1737	43.347940582726	26
1	1739	43.347940582726	27
1	1756	43.830078479053	28
1	1767	44.20870846839	29
1	1773	44.347940582726	28
1	1775	44.347940582726	29
1	1810	45.347940582726	28
1	1812	45.347940582726	29
1	1845	46.347940582726	28
1	1847	46.347940582726	29
1	1885	47.347940582726	28
1	1887	47.347940582726	29
1	1897	47.540968816101	30
1	1919	48.337052561026	31
1	1922	48.347940582726	30
1	1924	48.347940582726	31
1	1962	49.347940582726	30
1	1964	49.347940582726	31
1	2002	50.347940582726	30
1	2004	50.347940582726	31
1	2033	51.347940582726	30
1	2035	51.347940582726	31
1	2048	51.531301655128	32
1	2073	52.347940582726	31
1	2075	52.347940582726	32
1	2091	52.674103312072	33
1	2119	53.347940582726	32
1	2121	53.347940582726	33
1	2150	54.120783660313	34
1	2162	54.347940582726	33
1	2164	54.347940582726	34
1	2205	55.347940582726	33
1	2207	55.347940582726	34
1	2248	56.009348936209	35
1	2254	56.347940582726	34
1	2256	56.347940582726	35
1	2272	56.66489095687	36
1	2275	56.716196084407	37
1	2300	57.347940582726	36
1	2302	57.347940582726	37
1	2339	58.304710162479	38
1	2346	58.347940582726	37
1	2348	58.347940582726	38
1	2382	58.991969488416	39
1	2395	59.347940582726	38
1	2397	59.347940582726	39
1	2423	60.347940582726	38
1	2425	60.347940582726	39
1	2459	61.347940582726	38
1	2461	61.347940582726	39
1	2473	61.453315855306	40
1	2505	62.347940582726	39
1	2507	62.347940582726	40
1	2513	62.40350978189	41
1	2539	63.347940582726	40
1	2541	63.347940582726	41
1	2569	64.347940582726	40
1	2571	64.347940582726	41
1	2611	65.347940582726	40
1	2613	65.347940582726	41
1	2619	65.442373007545	42
1	2644	66.347940582726	41
1	2646	66.347940582726	42
1	2683	67.347940582726	41
1	2685	67.347940582726	42
1	2708	67.912451659535	43
1	2725	68.347940582726	42
1	2727	68.347940582726	43
1	2747	68.729737351752	44
1	2764	69.347940582726	43
1	2766	69.347940582726	44
1	2800	70.347940582726	43
1	2802	70.347940582726	44
1	2827	71.347940582726	43
1	2829	71.347940582726	44
1	2867	72.347940582726	43
1	2869	72.347940582726	44
1	2901	73.347940582726	43
1	2903	73.347940582726	44
1	2956	74.294678239608	45
1	2959	74.347940582726	44
1	2961	74.347940582726	45
1	2999	75.347940582726	44
1	3001	75.347940582726	45
1	3040	76.347940582726	44
1	3042	76.347940582726	45
1	3080	77.347940582726	44
1	3082	77.347940582726	45
1	3123	78.347940582726	44
1	3125	78.347940582726	45
1	3141	78.621494672218	46
1	3163	79.347940582726	45
1	3165	79.347940582726	46
1	3203	80.347940582726	45
1	3205	80.347940582726	46
1	3230	81.347940582726	45
1	3232	81.347940582726	46
1	3242	81.617252623453	47
1	3282	82.347940582726	46
1	3284	82.347940582726	47
1	3290	82.379050307483	48
1	3316	83.28156878727	49
1	3319	83.347940582726	48
1	3321	83.347940582726	49
1	3362	84.347940582726	48
1	3364	84.347940582726	49
1	3412	85.347940582726	48
1	3414	85.347940582726	49
1	3449	86.347940582726	48
1	3451	86.347940582726	49
1	3491	87.347940582726	48
1	3493	87.347940582726	49
1	3521	88.347940582726	48
1	3523	88.347940582726	49
1	3533	88.553286808075	50
1	3560	89.347940582726	49
1	3562	89.347940582726	50
1	3590	90.248820126941	51
1	3596	90.347940582726	50
1	3598	90.347940582726	51
1	3608	90.615556660005	52
1	3642	91.347940582726	51
1	3644	91.347940582726	52
1	3679	92.247413310427	53
1	3682	92.347940582726	52
1	3684	92.347940582726	53
1	3713	92.972870891661	54
1	3716	93.347940582726	53
1	3718	93.347940582726	54
1	3752	94.304123784387	55
1	3755	94.30420681223	56
1	3758	94.347940582726	55
1	3760	94.347940582726	56
1	3792	95.347940582726	55
1	3794	95.347940582726	56
1	3835	96.347940582726	55
1	3837	96.347940582726	56
1	3872	97.347940582726	55
1	3874	97.347940582726	56
1	3880	97.395438673551	57
1	3898	97.759516414059	58
1	3916	98.347940582726	57
1	3918	98.347940582726	58
1	3959	99.347940582726	57
1	3961	99.347940582726	58
1	3999	100.347940582726	57
1	4001	100.347940582726	58
1	4038	101.347940582726	57
1	4040	101.347940582726	58
1	4078	102.176236830194	59
1	4081	102.347940582726	58
1	4083	102.347940582726	59
1	4128	103.347940582726	58
1	4130	103.347940582726	59
1	4140	103.501915314243	60
1	4155	103.988213984473	61
1	4165	104.200677036666	62
1	4175	104.347940582726	61
1	4177	104.347940582726	62
1	4215	105.347940582726	61
1	4217	105.347940582726	62
1	4267	106.093396046897	63
1	4273	106.347940582726	62
1	4275	106.347940582726	63
1	4310	107.347940582726	62
1	4312	107.347940582726	63
1	4354	108.267728211538	64
1	4357	108.347940582726	63
1	4359	108.347940582726	64
1	4394	109.347940582726	63
1	4396	109.347940582726	64
1	4406	109.585050829615	65
1	4424	110.103330205178	66
1	4452	110.347940582726	65
1	4454	110.347940582726	66
1	4467	110.516622110735	67
1	4486	111.347940582726	66
1	4488	111.347940582726	67
1	4526	112.347940582726	66
1	4528	112.347940582726	67
1	4542	112.82336518245	68
1	4556	113.124028475079	69
1	4566	113.347940582726	68
1	4568	113.347940582726	69
1	4602	114.201398195241	70
1	4608	114.347940582726	69
1	4610	114.347940582726	70
1	4641	115.347940582726	69
1	4643	115.347940582726	70
1	4653	115.600315978144	71
1	4668	115.995681647397	72
1	4677	116.347940582726	71
1	4679	116.347940582726	72
1	4707	117.347940582726	71
1	4709	117.347940582726	72
1	4735	118.347940582726	71
1	4737	118.347940582726	72
1	4763	119.162014808971	73
1	4772	119.347940582726	72
1	4774	119.347940582726	73
1	4803	120.160778538926	74
1	4806	120.347940582726	73
1	4808	120.347940582726	74
1	4821	120.680908494609	75
1	4856	121.347940582726	74
1	4858	121.347940582726	75
1	4890	122.347940582726	74
1	4892	122.347940582726	75
1	4923	123.347940582726	74
1	4925	123.347940582726	75
1	4942	123.516061041753	76
1	4960	124.347940582726	75
1	4962	124.347940582726	76
1	4997	125.347940582726	75
1	4999	125.347940582726	76
1	5015	125.617074587194	77
1	5022	125.837912143164	78
1	5039	126.347940582726	77
1	5041	126.347940582726	78
1	5057	126.67642364815	79
1	5084	127.347940582726	78
1	5086	127.347940582726	79
1	5106	127.75049162514	80
1	5120	128.347940582726	79
1	5122	128.347940582726	80
1	5150	129.013696079396	81
1	5156	129.347940582726	80
1	5158	129.347940582726	81
1	5184	130.347940582726	80
1	5186	130.347940582726	81
1	5221	131.346637619928	82
1	5224	131.347940582726	81
1	5226	131.347940582726	82
1	5258	132.111623870702	83
1	5261	132.347940582726	82
1	5263	132.347940582726	83
1	5290	132.896075351186	84
1	5307	133.109263618275	85
1	5313	133.347940582726	84
1	5315	133.347940582726	85
1	5359	134.347940582726	84
1	5361	134.347940582726	85
1	5408	135.347940582726	84
1	5410	135.347940582726	85
1	5442	136.347940582726	84
1	5444	136.347940582726	85
1	5482	137.347940582726	84
1	5484	137.347940582726	85
1	5504	137.691553286786	86
1	5531	138.347940582726	85
1	5533	138.347940582726	86
1	5577	139.347940582726	85
1	5579	139.347940582726	86
1	5595	139.639221740193	87
1	5623	140.347940582726	86
1	5625	140.347940582726	87
1	5655	140.754596527857	88
1	5678	141.347940582726	87
1	5680	141.347940582726	88
1	5724	142.347940582726	87
1	5726	142.347940582726	88
1	5758	143.347940582726	87
1	5760	143.347940582726	88
1	5766	143.385168495392	89
1	5776	143.679861324237	90
1	5786	143.788489989409	91
1	5789	143.80309310342	92
1	5807	144.280968875239	93
1	5813	144.347940582726	92
1	5815	144.347940582726	93
1	5847	144.976053916549	94
1	5862	145.347940582726	93
1	5864	145.347940582726	94
1	5899	146.347940582726	93
1	5901	146.347940582726	94
1	5936	147.347940582726	93
1	5938	147.347940582726	94
1	5985	148.347940582726	93
1	5987	148.347940582726	94
1	6007	148.864726829724	95
1	6025	149.347940582726	94
1	6027	149.347940582726	95
1	6061	150.084074371502	96
1	6071	150.347940582726	95
1	6073	150.347940582726	96
1	6120	151.347940582726	95
1	6122	151.347940582726	96
1	6144	151.656508028936	97
1	6154	151.801704237398	98
1	6169	152.347940582726	97
1	6171	152.347940582726	98
1	6212	153.347940582726	97
1	6214	153.347940582726	98
1	6243	154.347940582726	97
1	6245	154.347940582726	98
1	6279	155.347940582726	97
1	6281	155.347940582726	98
1	6287	155.42272888316	99
1	6319	156.347940582726	98
1	6321	156.347940582726	99
1	6363	157.179624425581	100
1	6366	157.347940582726	99
1	6368	157.347940582726	100
1	6381	157.591319708586	101
1	6388	157.853812280913	102
1	6391	157.86853393551	103
1	6409	158.347940582726	102
1	6411	158.347940582726	103
1	6452	159.347940582726	102
1	6454	159.347940582726	103
1	6489	160.2558681197	104
1	6492	160.347940582726	103
1	6494	160.347940582726	104
1	6500	160.409695959205	105
1	6529	161.347940582726	104
1	6531	161.347940582726	105
1	6564	162.347940582726	104
1	6566	162.347940582726	105
1	6601	163.347940582726	104
1	6603	163.347940582726	105
1	6640	164.347940582726	104
1	6642	164.347940582726	105
1	6668	164.960609817801	106
1	6677	165.347940582726	105
1	6679	165.347940582726	106
1	6720	166.347940582726	105
1	6722	166.347940582726	106
1	6760	167.347940582726	105
1	6762	167.347940582726	106
1	6794	168.347940582726	105
1	6796	168.347940582726	106
1	6833	169.347940582726	105
1	6835	169.347940582726	106
1	6841	169.43327930379	107
1	6859	169.74055770451	108
1	6879	170.347940582726	107
1	6881	170.347940582726	108
1	6905	170.893251570597	109
1	6916	171.04875782556	110
1	6919	171.347940582726	109
1	6921	171.347940582726	110
1	6965	172.347940582726	109
1	6967	172.347940582726	110
1	7011	173.347940582726	109
1	7013	173.347940582726	110
1	7050	174.103199106468	111
1	7053	174.152705084053	112
1	7063	174.347940582726	111
1	7065	174.347940582726	112
1	7075	174.527631309028	113
1	7096	174.965550416621	114
1	7122	175.347940582726	113
1	7124	175.347940582726	114
1	7137	175.673502548279	115
1	7165	176.347940582726	114
1	7167	176.347940582726	115
1	7173	176.376884539188	116
1	7201	176.93362712039	117
1	7211	177.347940582726	116
1	7213	177.347940582726	117
1	7238	178.347940582726	116
1	7240	178.347940582726	117
1	7265	179.347940582726	116
1	7267	179.347940582726	117
1	7273	179.401402261002	118
1	7304	180.089944152233	119
1	7307	180.347940582726	118
1	7309	180.347940582726	119
1	7319	180.600299981653	120
1	7322	180.709877467385	121
1	7340	181.124335256776	122
1	7346	181.347940582726	121
1	7348	181.347940582726	122
1	7379	182.347940582726	121
1	7381	182.347940582726	122
1	7402	182.753640223512	123
1	7416	183.347940582726	122
1	7418	183.347940582726	123
1	7457	184.347940582726	122
1	7459	184.347940582726	123
1	7500	185.347940582726	122
1	7502	185.347940582726	123
1	7512	185.639248079514	124
1	7537	186.30995793341	125
1	7543	186.347940582726	124
1	7545	186.347940582726	125
1	7577	186.986816131146	126
1	7586	187.347940582726	125
1	7588	187.347940582726	126
1	7594	187.383989541154	127
1	7623	188.347940582726	126
1	7625	188.347940582726	127
1	7661	189.347940582726	126
1	7663	189.347940582726	127
1	7698	190.347940582726	126
1	7700	190.347940582726	127
1	7733	191.347940582726	126
1	7735	191.347940582726	127
1	7751	191.537706265411	128
1	7769	191.968069908486	129
1	7772	192.135986720202	130
1	7782	192.347940582726	129
1	7784	192.347940582726	130
1	7806	193.144561073259	131
1	7813	193.347940582726	130
1	7815	193.347940582726	131
1	7853	194.347940582726	130
1	7855	194.347940582726	131
1	7896	195.347940582726	130
1	7898	195.347940582726	131
1	7923	196.347940582726	130
1	7925	196.347940582726	131
1	7935	196.476382348059	132
1	7960	196.953464165845	133
1	7966	197.347940582726	132
1	7968	197.347940582726	133
1	7984	197.656781399287	134
1	8006	198.06411508681	135
1	8015	198.346962173187	136
1	8018	198.347940582726	135
1	8020	198.347940582726	136
1	8041	198.8739440955	137
1	8064	199.347940582726	136
1	8066	199.347940582726	137
2	7	0.727692245582	1
2	11	0.815269249222	1
2	23	1.529838708706	1
2	70	3.348040582726	1
2	114	4.348040582726	1
2	158	5.348040582726	1
2	176	5.787637669114	1
2	187	6.014483949611	1
2	198	6.348040582726	1
2	229	7.348040582726	1
2	266	8.348040582726	1
2	292	9.074955336524	1
2	303	9.348040582726	1
2	336	10.177401968309	1
2	350	10.348040582726	1
2	384	11.348040582726	1
2	400	11.709549779833	1
2	427	12.348040582726	1
2	440	12.512898360175	1
2	482	13.348040582726	1
2	528	14.348040582726	1
2	535	14.515833637111	1
2	568	15.348040582726	1
2	608	16.348040582726	1
2	647	17.348040582726	1
2	681	18.348040582726	1
2	704	18.832706169028	1
2	730	19.348040582726	1
2	768	20.236798508685	1
2	779	20.348040582726	1
2	825	21.348040582726	1
2	863	22.348040582726	1
2	903	23.348040582726	1
2	949	24.348040582726	1
2	977	25.026218471765	1
2	992	25.348040582726	1
2	1035	26.348040582726	1
2	1075	27.348040582726	1
2	1109	28.348040582726	1
2	1146	29.348040582726	1
2	1153	29.507003309543	1
2	1159	29.592993699179	1
2	1186	30.348040582726	1
2	1193	30.492914029141	1
2	1196	30.52319922136	1
2	1199	30.583163669947	1
2	1229	31.348040582726	1
2	1235	31.457481253247	1
2	1257	32.125610446127	1
2	1275	32.348040582726	1
2	1303	33.109079872672	1
2	1321	33.348040582726	1
2	1358	34.348040582726	1
2	1395	35.348040582726	1
2	1435	36.348040582726	1
2	1455	36.8649475473	1
2	1478	37.348040582726	1
2	1481	37.352958170594	1
2	1484	37.36705929659	1
2	1524	38.348040582726	1
2	1543	39.018328161726	1
2	1558	39.348040582726	1
2	1606	40.348040582726	1
2	1655	41.348040582726	1
2	1673	41.780251868957	1
2	1699	42.348040582726	1
2	1742	43.348040582726	1
2	1778	44.348040582726	1
2	1815	45.348040582726	1
2	1850	46.348040582726	1
2	1863	46.692966635529	1
2	1890	47.348040582726	1
2	1927	48.348040582726	1
2	1944	48.878194473375	1
2	1967	49.348040582726	1
2	1970	49.441802736985	1
2	2007	50.348040582726	1
2	2038	51.348040582726	1
2	2078	52.348040582726	1
2	2124	53.348040582726	1
2	2167	54.348040582726	1
2	2177	54.488358416562	1
2	2210	55.348040582726	1
2	2245	55.931921000219	1
2	2259	56.348040582726	1
2	2297	57.197753709105	1
2	2305	57.348040582726	1
2	2351	58.348040582726	1
2	2371	58.781528122095	1
2	2385	59.23387699193	1
2	2400	59.348040582726	1
2	2428	60.348040582726	1
2	2431	60.388992281249	1
2	2456	61.280102528735	1
2	2464	61.348040582726	1
2	2510	62.348040582726	1
2	2544	63.348040582726	1
2	2574	64.348040582726	1
2	2608	65.05902572386	1
2	2616	65.348040582726	1
2	2649	66.348040582726	1
2	2688	67.348040582726	1
2	2719	68.062005467149	1
2	2730	68.348040582726	1
2	2769	69.348040582726	1
2	2797	69.982506772868	1
2	2805	70.348040582726	1
2	2812	70.651886003647	1
2	2832	71.348040582726	1
2	2872	72.348040582726	1
2	2906	73.348040582726	1
2	2964	74.348040582726	1
2	2992	74.978803631801	1
2	3004	75.348040582726	1
2	3037	76.340749672788	1
2	3045	76.348040582726	1
2	3085	77.348040582726	1
2	3088	77.380549327094	1
2	3099	77.788051432607	1
2	3128	78.348040582726	1
2	3168	79.348040582726	1
2	3208	80.348040582726	1
2	3235	81.348040582726	1
2	3287	82.348040582726	1
2	3324	83.348040582726	1
2	3367	84.348040582726	1
2	3402	85.106750764597	1
2	3417	85.348040582726	1
2	3454	86.348040582726	1
2	3496	87.348040582726	1
2	3518	88.299755906394	1
2	3526	88.348040582726	1
2	3557	89.206627733897	1
2	3565	89.348040582726	1
2	3601	90.348040582726	1
2	3630	91.087932639033	1
2	3639	91.30932668837	1
2	3647	91.348040582726	1
2	3687	92.348040582726	1
2	3721	93.348040582726	1
2	3724	93.439901871748	1
2	3743	94.028761414029	1
2	3763	94.348040582726	1
2	3797	95.348040582726	1
2	3840	96.348040582726	1
2	3854	96.69597641928	1
2	3877	97.348040582726	1
2	3921	98.348040582726	1
2	3927	98.440646344418	1
2	3938	98.880073532148	1
2	3964	99.348040582726	1
2	3967	99.44471755943	1
2	4004	100.348040582726	1
2	4011	100.540059057289	1
2	4024	100.888846584866	1
2	4043	101.348040582726	1
2	4086	102.348040582726	1
2	4110	102.855305137107	1
2	4121	103.042854021992	1
2	4133	103.348040582726	1
2	4180	104.348040582726	1
2	4194	104.728044771314	1
2	4220	105.348040582726	1
2	4257	105.978112132283	1
2	4278	106.348040582726	1
2	4315	107.348040582726	1
2	4329	107.898748663251	1
2	4340	108.029411538139	1
2	4362	108.348040582726	1
2	4399	109.348040582726	1
2	4427	110.104386237366	1
2	4457	110.348040582726	1
2	4491	111.348040582726	1
2	4505	111.800763956149	1
2	4523	112.297128777913	1
2	4531	112.348040582726	1
2	4571	113.348040582726	1
2	4581	113.621449595349	1
2	4613	114.348040582726	1
2	4646	115.348040582726	1
2	4682	116.348040582726	1
2	4712	117.348040582726	1
2	4740	118.348040582726	1
2	4769	119.312485269981	1
2	4777	119.348040582726	1
2	4811	120.348040582726	1
2	4850	121.161805964527	1
2	4853	121.18179383177	1
2	4861	121.348040582726	1
2	4895	122.348040582726	1
2	4928	123.348040582726	1
2	4965	124.348040582726	1
2	5002	125.348040582726	1
2	5044	126.348040582726	1
2	5054	126.671279827917	1
2	5089	127.348040582726	1
2	5095	127.440351791862	1