version 3
run General-0-20250524-22:33:11-107971
attr configname General
attr datetime 20250524-22:33:11
attr datetimef 20250524-223311
attr experiment General
attr inifile omnetpp.ini
attr iterationvars ""
attr iterationvarsd ""
attr iterationvarsf ""
attr measurement ""
attr network Network
attr processid 107971
attr repetition 0
attr replication #0
attr resultdir results
attr runnumber 0
attr seedset 0
config network Network
config sim-time-limit 200s
config "Network.node[{0, 1, 2, 3, 4, 6, 7}].app.interArrivalTime" exponential(1.25)
config "Network.node[{0, 1, 2, 3, 4, 6, 7}].app.packetByteSize" 125000
config "Network.node[{0, 1, 2, 3, 4, 6, 7}].app.destination" 5

vector 0 Network.node[7].lnk[0] "Lnk use" ETV
vector 1 Network.node[7].lnk[0] "Buffer Size" ETV
vector 2 Network.node[6].lnk[0] "Lnk use" ETV
vector 3 Network.node[6].lnk[0] "Buffer Size" ETV
vector 4 Network.node[0].lnk[0] "Lnk use" ETV
vector 5 Network.node[0].lnk[0] "Buffer Size" ETV
vector 6 Network.node[4].lnk[0] "Lnk use" ETV
vector 7 Network.node[4].lnk[0] "Buffer Size" ETV
vector 8 Network.node[6].lnk[1] "Lnk use" ETV
vector 9 Network.node[5].lnk[1] "Lnk use" ETV
vector 10 Network.node[5].app "Delay Source 6" ETV
vector 11 Network.node[5].app "HopCount Source 6" ETV
vector 12 Network.node[7].lnk[1] "Lnk use" ETV
vector 13 Network.node[3].lnk[1] "Lnk use" ETV
vector 14 Network.node[3].lnk[0] "Lnk use" ETV
vector 15 Network.node[3].lnk[0] "Buffer Size" ETV
vector 16 Network.node[1].lnk[0] "Lnk use" ETV
vector 17 Network.node[1].lnk[0] "Buffer Size" ETV
vector 18 Network.node[2].lnk[0] "Lnk use" ETV
vector 19 Network.node[2].lnk[0] "Buffer Size" ETV
vector 20 Network.node[2].lnk[1] "Lnk use" ETV
vector 21 Network.node[0].lnk[1] "Lnk use" ETV
vector 22 Network.node[1].lnk[1] "Lnk use" ETV
vector 23 Network.node[5].app "Delay Source 7" ETV
vector 24 Network.node[5].app "HopCount Source 7" ETV
vector 25 Network.node[5].app "Delay Source 0" ETV
vector 26 Network.node[5].app "HopCount Source 0" ETV
vector 27 Network.node[5].app "Delay Source 1" ETV
vector 28 Network.node[5].app "HopCount Source 1" ETV
vector 29 Network.node[5].app "Delay Source 2" ETV
vector 30 Network.node[5].app "HopCount Source 2" ETV
vector 31 Network.node[5].app "Delay Source 4" ETV
vector 32 Network.node[5].app "HopCount Source 4" ETV
vector 33 Network.node[5].app "Delay Source 3" ETV
vector 34 Network.node[5].app "HopCount Source 3" ETV
0	3	0.441448923922	1
0	37	2.123300485605	1
0	66	3.123300485605	1
0	76	3.220854451467	1
0	127	4.123300485605	1
0	170	5.123300485605	1
0	201	6.123300485605	1
0	225	6.468672058778	1
0	238	7.123300485605	1
0	278	8.123300485605	1
0	305	8.486174652394	1
0	324	9.123300485605	1
0	348	9.576576146197	1
0	374	10.123300485605	1
0	401	10.498860260892	1
0	429	11.123300485605	1
0	439	11.260213289871	1
0	478	12.123300485605	1
0	500	12.461939463703	1
0	521	13.123300485605	1
0	562	13.893363157078	1
0	570	14.123300485605	1
0	597	15.123300485605	1
0	611	15.267003741517	1
0	631	15.56226212412	1
0	644	16.035964579473	1
0	649	16.123300485605	1
0	683	16.527355276103	1
0	701	17.123300485605	1
0	744	18.123300485605	1
0	787	19.123300485605	1
0	839	20.123300485605	1
0	882	21.123300485605	1
0	923	22.095476333823	1
0	928	22.123300485605	1
0	968	23.123300485605	1
0	1002	24.123300485605	1
0	1016	24.370249982928	1
0	1045	25.123300485605	1
0	1059	25.260979474595	1
0	1091	26.123300485605	1
0	1132	26.941286064785	1
0	1140	27.123300485605	1
0	1189	28.123300485605	1
0	1203	28.399877972971	1
0	1220	29.123300485605	1
0	1248	29.444999887934	1
0	1269	30.123300485605	1
0	1283	30.334059809455	1
0	1312	31.123300485605	1
0	1335	31.406429360798	1
0	1346	31.583092752749	1
0	1358	32.123300485605	1
0	1390	32.885318570473	1
0	1398	33.123300485605	1
0	1418	33.269715725176	1
0	1459	34.123300485605	1
0	1473	34.275712474928	1
0	1494	34.669114550996	1
0	1503	35.09454797379	1
0	1508	35.123300485605	1
0	1533	35.452074189425	1
0	1554	36.123300485605	1
0	1579	36.525065399211	1
0	1586	36.840590390325	1
0	1600	37.123300485605	1
0	1634	38.123300485605	1
0	1677	39.123300485605	1
0	1706	39.617474013418	1
0	1717	40.123300485605	1
0	1731	40.280877134189	1
0	1760	41.123300485605	1
0	1800	42.123300485605	1
0	1832	42.942751379274	1
0	1837	43.123300485605	1
0	1879	43.895086093394	1
0	1887	44.123300485605	1
0	1926	45.100653050261	1
0	1934	45.123300485605	1
0	1983	46.123300485605	1
0	2020	46.674457446841	1
0	2038	47.123300485605	1
0	2044	47.220742464058	1
0	2051	47.263496737006	1
0	2084	48.123300485605	1
0	2111	48.587258468733	1
0	2136	49.123300485605	1
0	2142	49.159974573681	1
0	2173	50.123300485605	1
0	2213	51.123300485605	1
0	2225	51.211096546089	1
0	2257	52.002924818242	1
0	2262	52.123300485605	1
0	2299	53.123300485605	1
0	2335	54.123300485605	1
0	2359	54.535310839621	1
0	2374	55.123300485605	1
0	2413	56.123300485605	1
0	2440	56.59370971628	1
0	2458	57.123300485605	1
0	2471	57.274781126461	1
0	2497	58.123300485605	1
0	2533	59.123300485605	1
0	2570	60.123300485605	1
0	2607	61.123300485605	1
0	2660	61.912231866341	1
0	2668	62.123300485605	1
0	2705	63.123300485605	1
0	2754	64.123300485605	1
0	2797	65.123300485605	1
0	2824	65.517912226849	1
0	2840	66.123300485605	1
0	2880	67.123300485605	1
0	2909	68.014377186211	1
0	2920	68.123300485605	1
0	2961	68.649208589569	1
0	2969	69.123300485605	1
0	2983	69.401307322724	1
0	3009	70.123300485605	1
0	3064	71.123300485605	1
0	3110	72.123300485605	1
0	3150	73.123300485605	1
0	3175	73.794405673395	1
0	3186	74.123300485605	1
0	3222	75.123300485605	1
0	3228	75.207350105783	1
0	3246	75.512963883337	1
0	3274	76.123300485605	1
0	3309	76.872844425355	1
0	3317	77.123300485605	1
0	3335	77.477392409717	1
0	3351	78.123300485605	1
0	3378	78.586769820322	1
0	3381	78.586839010191	1
0	3394	79.123300485605	1
0	3443	80.123300485605	1
0	3480	81.123300485605	1
0	3486	81.162865561292	1
0	3504	81.466263678382	1
0	3529	82.123300485605	1
0	3569	83.123300485605	1
0	3618	84.123300485605	1
0	3661	85.123300485605	1
0	3667	85.146864025161	1
0	3711	86.123300485605	1
0	3721	86.251596095202	1
0	3736	86.65684498706	1
0	3742	86.833897530554	1
0	3757	87.123300485605	1
0	3809	88.123300485605	1
0	3835	88.411163372413	1
0	3864	89.123300485605	1
0	3904	90.123300485605	1
0	3917	90.223106842948	1
0	3947	91.123300485605	1
0	3957	91.320875691346	1
0	3979	91.752775170982	1
0	4010	92.09718509228	1
0	4015	92.123300485605	1
0	4046	93.123300485605	1
0	4081	94.019470985376	1
0	4086	94.123300485605	1
0	4099	94.270023729233	1
0	4132	95.123300485605	1
0	4141	95.167831829368	1
0	4174	96.123300485605	1
0	4184	96.333596648454	1
0	4199	96.663068039498	1
0	4210	97.123300485605	1
0	4244	98.123300485605	1
0	4272	99.123300485605	1
0	4282	99.301679007476	1
0	4312	100.123300485605	1
0	4318	100.133982115772	1
0	4336	100.567423745508	1
0	4364	101.123300485605	1
0	4401	102.123300485605	1
0	4436	102.930050868128	1
0	4441	103.123300485605	1
0	4472	104.123300485605	1
0	4509	104.680895489329	1
0	4512	104.86492678597	1
0	4520	105.123300485605	1
0	4547	105.563686373459	1
0	4568	106.123300485605	1
0	4592	106.458743020951	1
0	4604	107.123300485605	1
0	4628	107.511413399498	1
0	4644	108.123300485605	1
0	4678	109.123300485605	1
0	4699	109.455531349941	1
0	4716	110.093019892253	1
0	4721	110.123300485605	1
0	4752	110.746729459323	1
0	4761	110.924386348564	1
0	4773	111.123300485605	1
0	4822	112.123300485605	1
0	4868	113.123300485605	1
0	4911	114.123300485605	1
0	4942	114.742961072323	1
0	4960	115.123300485605	1
0	5009	116.123300485605	1
0	5025	116.366018116829	1
0	5064	117.123300485605	1
0	5077	117.295497106549	1
0	5122	118.123300485605	1
0	5156	119.123300485605	1
0	5183	119.487640412828	1
0	5193	119.733217770199	1
0	5199	119.823741657842	1
0	5202	119.835910919518	1
0	5211	120.123300485605	1
0	5224	120.234140729367	1
0	5251	120.813378263792	1
0	5272	121.123300485605	1
0	5309	122.123300485605	1
0	5358	123.123300485605	1
0	5399	124.053939024771	1
0	5404	124.123300485605	1
0	5445	125.070061976253	1
0	5450	125.123300485605	1
0	5502	126.123300485605	1
0	5528	126.380423357448	1
0	5542	126.501420197833	1
0	5554	127.123300485605	1
0	5597	128.123300485605	1
0	5628	129.123300485605	1
0	5659	129.518940735968	1
0	5681	130.123300485605	1
0	5723	130.983020354652	1
0	5728	131.123300485605	1
0	5741	131.326099757156	1
0	5752	131.544843567429	1
0	5755	131.557111612927	1
0	5774	132.123300485605	1
0	5820	133.123300485605	1
0	5841	133.546556766418	1
0	5852	133.674746632672	1
0	5867	134.123300485605	1
0	5899	135.123300485605	1
0	5939	136.123300485605	1
0	5982	137.123300485605	1
0	6000	137.467174848169	1
0	6028	138.123300485605	1
0	6071	139.123300485605	1
0	6108	140.123300485605	1
0	6147	141.123300485605	1
0	6153	141.194399419827	1
0	6175	141.45046475376	1
0	6199	142.123300485605	1
0	6213	142.411042975499	1
0	6224	142.540631521302	1
0	6239	143.123300485605	1
0	6297	144.123300485605	1
0	6338	145.085999255392	1
0	6343	145.123300485605	1
0	6349	145.127254236712	1
0	6367	145.439692757524	1
0	6384	145.804625347185	1
0	6407	146.123300485605	1
0	6420	146.3945854569	1
0	6448	146.980737115991	1
0	6453	147.123300485605	1
0	6480	147.444689266992	1
0	6496	148.123300485605	1
0	6530	149.123300485605	1
0	6548	149.501168550835	1
0	6567	150.074953460194	1
0	6572	150.123300485605	1
0	6590	150.500249984711	1
0	6593	150.591564556154	1
0	6603	150.936946047313	1
0	6611	151.123300485605	1
0	6647	152.123300485605	1
0	6661	152.29470018626	1
0	6687	153.123300485605	1
0	6733	154.123300485605	1
0	6762	154.699373399595	1
0	6773	155.123300485605	1
0	6783	155.258298277842	1
0	6815	155.822346775955	1
0	6826	156.123300485605	1
0	6832	156.153324617628	1
0	6866	157.123300485605	1
0	6903	158.123300485605	1
0	6940	159.123300485605	1
0	6975	159.614755221175	1
0	6981	159.973391590405	1
0	6984	160.113322266835	1
0	6989	160.123300485605	1
0	7018	160.953800894382	1
0	7023	161.123300485605	1
0	7069	162.123300485605	1
0	7106	163.123300485605	1
0	7135	163.730318623382	1
0	7150	164.123300485605	1
0	7156	164.127886804871	1
0	7184	164.713984499406	1
0	7194	165.053429239008	1
0	7199	165.123300485605	1
0	7215	165.289135144322	1
0	7233	165.72828674625	1
0	7254	166.123300485605	1
0	7291	167.123300485605	1
0	7331	168.123300485605	1
0	7362	168.442319097943	1
0	7365	168.473479217603	1
0	7386	169.123300485605	1
0	7415	169.976675898489	1
0	7426	170.123300485605	1
0	7451	170.728119206469	1
0	7456	171.123300485605	1
0	7462	171.161160865838	1
0	7502	172.123300485605	1
0	7532	172.554233655483	1
0	7554	173.123300485605	1
0	7600	174.123300485605	1
0	7634	175.123300485605	1
0	7644	175.376079643928	1
0	7665	176.028718774442	1
0	7670	176.123300485605	1
0	7710	177.123300485605	1
0	7759	178.123300485605	1
0	7805	179.123300485605	1
0	7838	180.123300485605	1
0	7869	180.677979163066	1
0	7875	180.740373666099	1
0	7881	181.106061917588	1
0	7886	181.123300485605	1
0	7918	181.844605943094	1
0	7923	182.123300485605	1
0	7937	182.380157229083	1
0	7960	183.123300485605	1
0	7970	183.273449963305	1
0	8000	184.123300485605	1
0	8037	184.699754131122	1
0	8049	185.123300485605	1
0	8084	186.109454673088	1
0	8089	186.123300485605	1
0	8116	186.524780452561	1
0	8138	187.123300485605	1
0	8178	188.073576086784	1
0	8183	188.123300485605	1
0	8189	188.190770321296	1
0	8236	189.063996578895	1
0	8247	189.123300485605	1
0	8293	190.123300485605	1
0	8333	191.123300485605	1
0	8379	192.123300485605	1
0	8419	193.123300485605	1
0	8439	193.400738877366	1
0	8456	194.123300485605	1
0	8491	194.89113359514	1
0	8496	195.123300485605	1
0	8525	195.78232919405	1
0	8536	196.123300485605	1
0	8549	196.290345277484	1
0	8556	196.418222503746	1
0	8582	197.123300485605	1
0	8588	197.147547719127	1
0	8631	198.123300485605	1
0	8660	198.627582389561	1
0	8668	199.123300485605	1
0	8700	199.847947418272	1
1	3	0.441448923922	1
1	4	0.441448923922	0
1	37	2.123300485605	1
1	38	2.123300485605	0
1	66	3.123300485605	1
1	67	3.123300485605	0
1	76	3.220854451467	1
1	125	4.123300485605	0
1	127	4.123300485605	1
1	168	5.123300485605	0
1	170	5.123300485605	1
1	199	6.123300485605	0
1	201	6.123300485605	1
1	225	6.468672058778	2
1	236	7.123300485605	1
1	238	7.123300485605	2
1	276	8.123300485605	1
1	278	8.123300485605	2
1	305	8.486174652394	3
1	322	9.123300485605	2
1	324	9.123300485605	3
1	348	9.576576146197	4
1	372	10.123300485605	3
1	374	10.123300485605	4
1	401	10.498860260892	5
1	427	11.123300485605	4
1	429	11.123300485605	5
1	439	11.260213289871	6
1	476	12.123300485605	5
1	478	12.123300485605	6
1	500	12.461939463703	7
1	519	13.123300485605	6
1	521	13.123300485605	7
1	562	13.893363157078	8
1	568	14.123300485605	7
1	570	14.123300485605	8
1	595	15.123300485605	7
1	597	15.123300485605	8
1	611	15.267003741517	9
1	631	15.56226212412	10
1	644	16.035964579473	11
1	647	16.123300485605	10
1	649	16.123300485605	11
1	683	16.527355276103	12
1	699	17.123300485605	11
1	701	17.123300485605	12
1	742	18.123300485605	11
1	744	18.123300485605	12
1	785	19.123300485605	11
1	787	19.123300485605	12
1	837	20.123300485605	11
1	839	20.123300485605	12
1	880	21.123300485605	11
1	882	21.123300485605	12
1	923	22.095476333823	13
1	926	22.123300485605	12
1	928	22.123300485605	13
1	966	23.123300485605	12
1	968	23.123300485605	13
1	1000	24.123300485605	12
1	1002	24.123300485605	13
1	1016	24.370249982928	14
1	1043	25.123300485605	13
1	1045	25.123300485605	14
1	1059	25.260979474595	15
1	1089	26.123300485605	14
1	1091	26.123300485605	15
1	1132	26.941286064785	16
1	1138	27.123300485605	15
1	1140	27.123300485605	16
1	1187	28.123300485605	15
1	1189	28.123300485605	16
1	1203	28.399877972971	17
1	1218	29.123300485605	16
1	1220	29.123300485605	17
1	1248	29.444999887934	18
1	1267	30.123300485605	17
1	1269	30.123300485605	18
1	1283	30.334059809455	19
1	1310	31.123300485605	18
1	1312	31.123300485605	19
1	1335	31.406429360798	20
1	1346	31.583092752749	21
1	1356	32.123300485605	20
1	1358	32.123300485605	21
1	1390	32.885318570473	22
1	1396	33.123300485605	21
1	1398	33.123300485605	22
1	1418	33.269715725176	23
1	1457	34.123300485605	22
1	1459	34.123300485605	23
1	1473	34.275712474928	24
1	1494	34.669114550996	25
1	1503	35.09454797379	26
1	1506	35.123300485605	25
1	1508	35.123300485605	26
1	1533	35.452074189425	27
1	1552	36.123300485605	26
1	1554	36.123300485605	27
1	1579	36.525065399211	28
1	1586	36.840590390325	29
1	1598	37.123300485605	28
1	1600	37.123300485605	29
1	1632	38.123300485605	28
1	1634	38.123300485605	29
1	1675	39.123300485605	28
1	1677	39.123300485605	29
1	1706	39.617474013418	30
1	1715	40.123300485605	29
1	1717	40.123300485605	30
1	1731	40.280877134189	31
1	1758	41.123300485605	30
1	1760	41.123300485605	31
1	1798	42.123300485605	30
1	1800	42.123300485605	31
1	1832	42.942751379274	32
1	1835	43.123300485605	31
1	1837	43.123300485605	32
1	1879	43.895086093394	33
1	1885	44.123300485605	32
1	1887	44.123300485605	33
1	1926	45.100653050261	34
1	1932	45.123300485605	33
1	1934	45.123300485605	34
1	1981	46.123300485605	33
1	1983	46.123300485605	34
1	2020	46.674457446841	35
1	2036	47.123300485605	34
1	2038	47.123300485605	35
1	2044	47.220742464058	36
1	2051	47.263496737006	37
1	2082	48.123300485605	36
1	2084	48.123300485605	37
1	2111	48.587258468733	38
1	2134	49.123300485605	37
1	2136	49.123300485605	38
1	2142	49.159974573681	39
1	2171	50.123300485605	38
1	2173	50.123300485605	39
1	2211	51.123300485605	38
1	2213	51.123300485605	39
1	2225	51.211096546089	40
1	2257	52.002924818242	41
1	2260	52.123300485605	40
1	2262	52.123300485605	41
1	2297	53.123300485605	40
1	2299	53.123300485605	41
1	2333	54.123300485605	40
1	2335	54.123300485605	41
1	2359	54.535310839621	42
1	2372	55.123300485605	41
1	2374	55.123300485605	42
1	2411	56.123300485605	41
1	2413	56.123300485605	42
1	2440	56.59370971628	43
1	2456	57.123300485605	42
1	2458	57.123300485605	43
1	2471	57.274781126461	44
1	2495	58.123300485605	43
1	2497	58.123300485605	44
1	2531	59.123300485605	43
1	2533	59.123300485605	44
1	2568	60.123300485605	43
1	2570	60.123300485605	44
1	2605	61.123300485605	43
1	2607	61.123300485605	44
1	2660	61.912231866341	45
1	2666	62.123300485605	44
1	2668	62.123300485605	45
1	2703	63.123300485605	44
1	2705	63.123300485605	45
1	2752	64.123300485605	44
1	2754	64.123300485605	45
1	2795	65.123300485605	44
1	2797	65.123300485605	45
1	2824	65.517912226849	46
1	2838	66.123300485605	45
1	2840	66.123300485605	46
1	2878	67.123300485605	45
1	2880	67.123300485605	46
1	2909	68.014377186211	47
1	2918	68.123300485605	46
1	2920	68.123300485605	47
1	2961	68.649208589569	48
1	2967	69.123300485605	47
1	2969	69.123300485605	48
1	2983	69.401307322724	49
1	3007	70.123300485605	48
1	3009	70.123300485605	49
1	3062	71.123300485605	48
1	3064	71.123300485605	49
1	3108	72.123300485605	48
1	3110	72.123300485605	49
1	3148	73.123300485605	48
1	3150	73.123300485605	49
1	3175	73.794405673395	50
1	3184	74.123300485605	49
1	3186	74.123300485605	50
1	3220	75.123300485605	49
1	3222	75.123300485605	50
1	3228	75.207350105783	51
1	3246	75.512963883337	52
1	3272	76.123300485605	51
1	3274	76.123300485605	52
1	3309	76.872844425355	53
1	3315	77.123300485605	52
1	3317	77.123300485605	53
1	3335	77.477392409717	54
1	3349	78.123300485605	53
1	3351	78.123300485605	54
1	3378	78.586769820322	55
1	3381	78.586839010191	56
1	3392	79.123300485605	55
1	3394	79.123300485605	56
1	3441	80.123300485605	55
1	3443	80.123300485605	56
1	3478	81.123300485605	55
1	3480	81.123300485605	56
1	3486	81.162865561292	57
1	3504	81.466263678382	58
1	3527	82.123300485605	57
1	3529	82.123300485605	58
1	3567	83.123300485605	57
1	3569	83.123300485605	58
1	3616	84.123300485605	57
1	3618	84.123300485605	58
1	3659	85.123300485605	57
1	3661	85.123300485605	58
1	3667	85.146864025161	59
1	3709	86.123300485605	58
1	3711	86.123300485605	59
1	3721	86.251596095202	60
1	3736	86.65684498706	61
1	3742	86.833897530554	62
1	3755	87.123300485605	61
1	3757	87.123300485605	62
1	3807	88.123300485605	61
1	3809	88.123300485605	62
1	3835	88.411163372413	63
1	3862	89.123300485605	62
1	3864	89.123300485605	63
1	3902	90.123300485605	62
1	3904	90.123300485605	63
1	3917	90.223106842948	64
1	3945	91.123300485605	63
1	3947	91.123300485605	64
1	3957	91.320875691346	65
1	3979	91.752775170982	66
1	4010	92.09718509228	67
1	4013	92.123300485605	66
1	4015	92.123300485605	67
1	4044	93.123300485605	66
1	4046	93.123300485605	67
1	4081	94.019470985376	68
1	4084	94.123300485605	67
1	4086	94.123300485605	68
1	4099	94.270023729233	69
1	4130	95.123300485605	68
1	4132	95.123300485605	69
1	4141	95.167831829368	70
1	4172	96.123300485605	69
1	4174	96.123300485605	70
1	4184	96.333596648454	71
1	4199	96.663068039498	72
1	4208	97.123300485605	71
1	4210	97.123300485605	72
1	4242	98.123300485605	71
1	4244	98.123300485605	72
1	4270	99.123300485605	71
1	4272	99.123300485605	72
1	4282	99.301679007476	73
1	4310	100.123300485605	72
1	4312	100.123300485605	73
1	4318	100.133982115772	74
1	4336	100.567423745508	75
1	4362	101.123300485605	74
1	4364	101.123300485605	75
1	4399	102.123300485605	74
1	4401	102.123300485605	75
1	4436	102.930050868128	76
1	4439	103.123300485605	75
1	4441	103.123300485605	76
1	4470	104.123300485605	75
1	4472	104.123300485605	76
1	4509	104.680895489329	77
1	4512	104.86492678597	78
1	4518	105.123300485605	77
1	4520	105.123300485605	78
1	4547	105.563686373459	79
1	4566	106.123300485605	78
1	4568	106.123300485605	79
1	4592	106.458743020951	80
1	4602	107.123300485605	79
1	4604	107.123300485605	80
1	4628	107.511413399498	81
1	4642	108.123300485605	80
1	4644	108.123300485605	81
1	4676	109.123300485605	80
1	4678	109.123300485605	81
1	4699	109.455531349941	82
1	4716	110.093019892253	83
1	4719	110.123300485605	82
1	4721	110.123300485605	83
1	4752	110.746729459323	84
1	4761	110.924386348564	85
1	4771	111.123300485605	84
1	4773	111.123300485605	85
1	4820	112.123300485605	84
1	4822	112.123300485605	85
1	4866	113.123300485605	84
1	4868	113.123300485605	85
1	4909	114.123300485605	84
1	4911	114.123300485605	85
1	4942	114.742961072323	86
1	4958	115.123300485605	85
1	4960	115.123300485605	86
1	5007	116.123300485605	85
1	5009	116.123300485605	86
1	5025	116.366018116829	87
1	5062	117.123300485605	86
1	5064	117.123300485605	87
1	5077	117.295497106549	88
1	5120	118.123300485605	87
1	5122	118.123300485605	88
1	5154	119.123300485605	87
1	5156	119.123300485605	88
1	5183	119.487640412828	89
1	5193	119.733217770199	90
1	5199	119.823741657842	91
1	5202	119.835910919518	92
1	5209	120.123300485605	91
1	5211	120.123300485605	92
1	5224	120.234140729367	93
1	5251	120.813378263792	94
1	5270	121.123300485605	93
1	5272	121.123300485605	94
1	5307	122.123300485605	93
1	5309	122.123300485605	94
1	5356	123.123300485605	93
1	5358	123.123300485605	94
1	5399	124.053939024771	95
1	5402	124.123300485605	94
1	5404	124.123300485605	95
1	5445	125.070061976253	96
1	5448	125.123300485605	95
1	5450	125.123300485605	96
1	5500	126.123300485605	95
1	5502	126.123300485605	96
1	5528	126.380423357448	97
1	5542	126.501420197833	98
1	5552	127.123300485605	97
1	5554	127.123300485605	98
1	5595	128.123300485605	97
1	5597	128.123300485605	98
1	5626	129.123300485605	97
1	5628	129.123300485605	98
1	5659	129.518940735968	99
1	5679	130.123300485605	98
1	5681	130.123300485605	99
1	5723	130.983020354652	100
1	5726	131.123300485605	99
1	5728	131.123300485605	100
1	5741	131.326099757156	101
1	5752	131.544843567429	102
1	5755	131.557111612927	103
1	5772	132.123300485605	102
1	5774	132.123300485605	103
1	5818	133.123300485605	102
1	5820	133.123300485605	103
1	5841	133.546556766418	104
1	5852	133.674746632672	105
1	5865	134.123300485605	104
1	5867	134.123300485605	105
1	5897	135.123300485605	104
1	5899	135.123300485605	105
1	5937	136.123300485605	104
1	5939	136.123300485605	105
1	5980	137.123300485605	104
1	5982	137.123300485605	105
1	6000	137.467174848169	106
1	6026	138.123300485605	105
1	6028	138.123300485605	106
1	6069	139.123300485605	105
1	6071	139.123300485605	106
1	6106	140.123300485605	105
1	6108	140.123300485605	106
1	6145	141.123300485605	105
1	6147	141.123300485605	106
1	6153	141.194399419827	107
1	6175	141.45046475376	108
1	6197	142.123300485605	107
1	6199	142.123300485605	108
1	6213	142.411042975499	109
1	6224	142.540631521302	110
1	6237	143.123300485605	109
1	6239	143.123300485605	110
1	6295	144.123300485605	109
1	6297	144.123300485605	110
1	6338	145.085999255392	111
1	6341	145.123300485605	110
1	6343	145.123300485605	111
1	6349	145.127254236712	112
1	6367	145.439692757524	113
1	6384	145.804625347185	114
1	6405	146.123300485605	113
1	6407	146.123300485605	114
1	6420	146.3945854569	115
1	6448	146.980737115991	116
1	6451	147.123300485605	115
1	6453	147.123300485605	116
1	6480	147.444689266992	117
1	6494	148.123300485605	116
1	6496	148.123300485605	117
1	6528	149.123300485605	116
1	6530	149.123300485605	117
1	6548	149.501168550835	118
1	6567	150.074953460194	119
1	6570	150.123300485605	118
1	6572	150.123300485605	119
1	6590	150.500249984711	120
1	6593	150.591564556154	121
1	6603	150.936946047313	122
1	6609	151.123300485605	121
1	6611	151.123300485605	122
1	6645	152.123300485605	121
1	6647	152.123300485605	122
1	6661	152.29470018626	123
1	6685	153.123300485605	122
1	6687	153.123300485605	123
1	6731	154.123300485605	122
1	6733	154.123300485605	123
1	6762	154.699373399595	124
1	6771	155.123300485605	123
1	6773	155.123300485605	124
1	6783	155.258298277842	125
1	6815	155.822346775955	126
1	6824	156.123300485605	125
1	6826	156.123300485605	126
1	6832	156.153324617628	127
1	6864	157.123300485605	126
1	6866	157.123300485605	127
1	6901	158.123300485605	126
1	6903	158.123300485605	127
1	6938	159.123300485605	126
1	6940	159.123300485605	127
1	6975	159.614755221175	128
1	6981	159.973391590405	129
1	6984	160.113322266835	130
1	6987	160.123300485605	129
1	6989	160.123300485605	130
1	7018	160.953800894382	131
1	7021	161.123300485605	130
1	7023	161.123300485605	131
1	7067	162.123300485605	130
1	7069	162.123300485605	131
1	7104	163.123300485605	130
1	7106	163.123300485605	131
1	7135	163.730318623382	132
1	7148	164.123300485605	131
1	7150	164.123300485605	132
1	7156	164.127886804871	133
1	7184	164.713984499406	134
1	7194	165.053429239008	135
1	7197	165.123300485605	134
1	7199	165.123300485605	135
1	7215	165.289135144322	136
1	7233	165.72828674625	137
1	7252	166.123300485605	136
1	7254	166.123300485605	137
1	7289	167.123300485605	136
1	7291	167.123300485605	137
1	7329	168.123300485605	136
1	7331	168.123300485605	137
1	7362	168.442319097943	138
1	7365	168.473479217603	139
1	7384	169.123300485605	138
1	7386	169.123300485605	139
1	7415	169.976675898489	140
1	7424	170.123300485605	139
1	7426	170.123300485605	140
1	7451	170.728119206469	141
1	7454	171.123300485605	140
1	7456	171.123300485605	141
1	7462	171.161160865838	142
1	7500	172.123300485605	141
1	7502	172.123300485605	142
1	7532	172.554233655483	143
1	7552	173.123300485605	142
1	7554	173.123300485605	143
1	7598	174.123300485605	142
1	7600	174.123300485605	143
1	7632	175.123300485605	142
1	7634	175.123300485605	143
1	7644	175.376079643928	144
1	7665	176.028718774442	145
1	7668	176.123300485605	144
1	7670	176.123300485605	145
1	7708	177.123300485605	144
1	7710	177.123300485605	145
1	7757	178.123300485605	144
1	7759	178.123300485605	145
1	7803	179.123300485605	144
1	7805	179.123300485605	145
1	7836	180.123300485605	144
1	7838	180.123300485605	145
1	7869	180.677979163066	146
1	7875	180.740373666099	147
1	7881	181.106061917588	148
1	7884	181.123300485605	147
1	7886	181.123300485605	148
1	7918	181.844605943094	149
1	7921	182.123300485605	148
1	7923	182.123300485605	149
1	7937	182.380157229083	150
1	7958	183.123300485605	149
1	7960	183.123300485605	150
1	7970	183.273449963305	151
1	7998	184.123300485605	150
1	8000	184.123300485605	151
1	8037	184.699754131122	152
1	8047	185.123300485605	151
1	8049	185.123300485605	152
1	8084	186.109454673088	153
1	8087	186.123300485605	152
1	8089	186.123300485605	153
1	8116	186.524780452561	154
1	8136	187.123300485605	153
1	8138	187.123300485605	154
1	8178	188.073576086784	155
1	8181	188.123300485605	154
1	8183	188.123300485605	155
1	8189	188.190770321296	156
1	8236	189.063996578895	157
1	8245	189.123300485605	156
1	8247	189.123300485605	157
1	8291	190.123300485605	156
1	8293	190.123300485605	157
1	8331	191.123300485605	156
1	8333	191.123300485605	157
1	8377	192.123300485605	156
1	8379	192.123300485605	157
1	8417	193.123300485605	156
1	8419	193.123300485605	157
1	8439	193.400738877366	158
1	8454	194.123300485605	157
1	8456	194.123300485605	158
1	8491	194.89113359514	159
1	8494	195.123300485605	158
1	8496	195.123300485605	159
1	8525	195.78232919405	160
1	8534	196.123300485605	159
1	8536	196.123300485605	160
1	8549	196.290345277484	161
1	8556	196.418222503746	162
1	8580	197.123300485605	161
1	8582	197.123300485605	162
1	8588	197.147547719127	163
1	8629	198.123300485605	162
1	8631	198.123300485605	163
1	8660	198.627582389561	164
1	8666	199.123300485605	163
1	8668	199.123300485605	164
1	8700	199.847947418272	165
2	7	0.606410204652	1
2	11	0.679391041018	1
2	23	1.441548923922	1
2	70	3.123400485605	1
2	130	4.123400485605	1
2	159	4.823031390928	1
2	162	5.012069958009	1
2	173	5.123400485605	1
2	204	6.123400485605	1
2	241	7.123400485605	1
2	259	7.562462780436	1
2	281	8.123400485605	1
2	302	8.481168306923	1
2	327	9.123400485605	1
2	358	9.75795814986	1
2	377	10.123400485605	1
2	390	10.427415300145	1
2	432	11.123400485605	1
2	473	12.096528030925	1
2	481	12.123400485605	1
2	524	13.123400485605	1
2	573	14.123400485605	1
2	600	15.123400485605	1
2	638	15.693921807522	1
2	652	16.123400485605	1
2	690	16.863998757236	1
2	704	17.123400485605	1
2	747	18.123400485605	1
2	790	19.123400485605	1
2	842	20.123400485605	1
2	874	20.855182059803	1
2	885	21.123400485605	1
2	931	22.123400485605	1
2	971	23.123400485605	1
2	1005	24.123400485605	1
2	1030	24.589169424618	1
2	1040	24.660828082648	1
2	1048	25.123400485605	1
2	1062	25.410761690949	1
2	1065	25.435999351132	1
2	1076	25.485969724955	1
2	1094	26.123400485605	1
2	1104	26.214567711039	1
2	1126	26.771342038439	1
2	1143	27.123400485605	1
2	1168	27.590899893894	1
2	1192	28.123400485605	1
2	1223	29.123400485605	1
2	1272	30.123400485605	1
2	1304	30.72078962275	1
2	1315	31.123400485605	1
2	1318	31.127465142161	1
2	1325	31.139216080491	1
2	1361	32.123400485605	1
2	1380	32.515273468105	1
2	1401	33.123400485605	1
2	1462	34.123400485605	1
2	1497	34.816876557464	1
2	1511	35.123400485605	1
2	1557	36.123400485605	1
2	1603	37.123400485605	1
2	1637	38.123400485605	1
2	1672	38.910805529607	1
2	1680	39.123400485605	1
2	1720	40.123400485605	1
2	1752	40.731828727812	1
2	1763	41.123400485605	1
2	1770	41.20150228082	1
2	1803	42.123400485605	1
2	1840	43.123400485605	1
2	1890	44.123400485605	1
2	1937	45.123400485605	1
2	1953	45.406965347134	1
2	1986	46.123400485605	1
2	2017	46.609934166848	1
2	2041	47.123400485605	1
2	2069	47.664794757587	1
2	2087	48.123400485605	1
2	2131	48.984606768412	1
2	2139	49.123400485605	1
2	2149	49.361564159941	1
2	2176	50.123400485605	1
2	2183	50.324160234374	1
2	2208	51.066752107279	1
2	2216	51.123400485605	1
2	2265	52.123400485605	1
2	2302	53.123400485605	1
2	2338	54.123400485605	1
2	2344	54.215854769883	1
2	2377	55.123400485605	1
2	2416	56.123400485605	1
2	2447	56.71833788929	1
2	2461	57.123400485605	1
2	2500	58.123400485605	1
2	2513	58.318755644055	1
2	2528	58.876571669704	1
2	2536	59.123400485605	1
2	2573	60.123400485605	1
2	2610	61.123400485605	1
2	2671	62.123400485605	1
2	2692	62.482336359832	1
2	2708	63.123400485605	1
2	2736	63.617291393988	1
2	2757	64.123400485605	1
2	2775	64.48379110591	1
2	2786	64.823376193838	1
2	2800	65.123400485605	1
2	2843	66.123400485605	1
2	2883	67.123400485605	1
2	2923	68.123400485605	1
2	2972	69.123400485605	1
2	3012	70.123400485605	1
2	3053	70.92229230383	1
2	3067	71.123400485605	1
2	3113	72.123400485605	1
2	3153	73.123400485605	1
2	3168	73.583129921994	1
2	3189	74.123400485605	1
2	3199	74.338856444913	1
2	3225	75.123400485605	1
2	3260	75.906610532527	1
2	3269	76.091105573641	1
2	3277	76.123400485605	1
2	3320	77.123400485605	1
2	3346	77.866584893122	1
2	3354	78.123400485605	1
2	3361	78.357301178356	1
2	3397	79.123400485605	1
2	3446	80.123400485605	1
2	3464	80.579980349399	1
2	3483	81.123400485605	1
2	3524	82.033871953681	1
2	3532	82.123400485605	1
2	3539	82.400061276789	1
2	3564	82.870597966191	1
2	3572	83.123400485605	1
2	3600	83.78338254774	1