version 3
run General-0-20250529-09:19:46-14389
attr configname General
attr datetime 20250529-09:19:46
attr datetimef 20250529-091946
attr experiment General
attr inifile omnetpp.ini
attr iterationvars ""
attr iterationvarsd ""
attr iterationvarsf ""
attr measurement ""
attr network Network
attr processid 14389
attr repetition 0
attr replication #0
attr resultdir results
attr runnumber 0
attr seedset 0
config network Network
config sim-time-limit 200s
config "Network.node[{0, 1, 2, 3, 4, 6, 7}].app.interArrivalTime" exponential(2)
config "Network.node[{0, 1, 2, 3, 4, 6, 7}].app.packetByteSize" 125000
config "Network.node[{0, 1, 2, 3, 4, 6, 7}].app.destination" 5

vector 0 Network.node[7].lnk[0] "Lnk use" ETV
vector 1 Network.node[7].lnk[0] "Buffer Size" ETV
vector 2 Network.node[6].lnk[0] "Lnk use" ETV
vector 3 Network.node[6].lnk[0] "Buffer Size" ETV
vector 4 Network.node[6].lnk[1] "Lnk use" ETV
vector 5 Network.node[0].lnk[0] "Lnk use" ETV
vector 6 Network.node[0].lnk[0] "Buffer Size" ETV
vector 7 Network.node[4].lnk[0] "Lnk use" ETV
vector 8 Network.node[4].lnk[0] "Buffer Size" ETV
vector 9 Network.node[5].lnk[1] "Lnk use" ETV
vector 10 Network.node[5].app "Delay Source 6" ETV
vector 11 Network.node[5].app "HopCount Source 6" ETV
vector 12 Network.node[7].lnk[1] "Lnk use" ETV
vector 13 Network.node[3].lnk[1] "Lnk use" ETV
vector 14 Network.node[3].lnk[0] "Lnk use" ETV
vector 15 Network.node[3].lnk[0] "Buffer Size" ETV
vector 16 Network.node[1].lnk[0] "Lnk use" ETV
vector 17 Network.node[1].lnk[0] "Buffer Size" ETV
vector 18 Network.node[2].lnk[0] "Lnk use" ETV
vector 19 Network.node[2].lnk[0] "Buffer Size" ETV
vector 20 Network.node[2].lnk[1] "Lnk use" ETV
vector 21 Network.node[5].app "Delay Source 7" ETV
vector 22 Network.node[5].app "HopCount Source 7" ETV
vector 23 Network.node[0].lnk[1] "Lnk use" ETV
vector 24 Network.node[1].lnk[1] "Lnk use" ETV
vector 25 Network.node[5].app "Delay Source 0" ETV
vector 26 Network.node[5].app "HopCount Source 0" ETV
vector 27 Network.node[5].app "Delay Source 1" ETV
vector 28 Network.node[5].app "HopCount Source 1" ETV
vector 29 Network.node[5].app "Delay Source 2" ETV
vector 30 Network.node[5].app "HopCount Source 2" ETV
vector 31 Network.node[5].app "Delay Source 4" ETV
vector 32 Network.node[5].app "HopCount Source 4" ETV
vector 33 Network.node[5].app "Delay Source 3" ETV
vector 34 Network.node[5].app "HopCount Source 3" ETV
0	3	0.706318278275	1
0	34	2.797220776968	1
0	62	3.797220776968	1
0	91	4.797220776968	1
0	114	5.153367122348	1
0	128	5.797220776968	1
0	169	6.797220776968	1
0	207	7.797220776968	1
0	241	8.797220776968	1
0	272	9.797220776968	1
0	305	10.349875294046	1
0	310	10.797220776968	1
0	341	11.797220776968	1
0	374	12.797220776968	1
0	406	13.577879443831	1
0	414	13.797220776968	1
0	445	14.797220776968	1
0	473	15.322521833915	1
0	487	15.797220776968	1
0	524	16.797220776968	1
0	530	16.798176417427	1
0	571	17.797220776968	1
0	598	18.016341263793	1
0	615	18.797220776968	1
0	649	19.797220776968	1
0	663	19.939103141925	1
0	692	20.797220776968	1
0	722	21.797220776968	1
0	753	22.229381051325	1
0	761	22.797220776968	1
0	788	23.797220776968	1
0	814	24.427205986427	1
0	825	24.797220776968	1
0	834	24.899619398592	1
0	860	25.657543327157	1
0	865	25.797220776968	1
0	903	26.443768441765	1
0	908	26.797220776968	1
0	952	27.797220776968	1
0	989	28.797220776968	1
0	1023	29.797220776968	1
0	1061	30.797220776968	1
0	1101	31.797220776968	1
0	1138	32.797220776968	1
0	1181	33.797220776968	1
0	1224	34.797220776968	1
0	1246	35.352762134117	1
0	1255	35.797220776968	1
0	1295	36.797220776968	1
0	1326	37.797220776968	1
0	1357	38.797220776968	1
0	1375	38.992399972686	1
0	1400	39.797220776968	1
0	1422	40.417567159352	1
0	1440	40.797220776968	1
0	1470	41.797220776968	1
0	1503	42.797220776968	1
0	1527	43.106057703657	1
0	1542	43.797220776968	1
0	1579	44.797220776968	1
0	1611	45.439804756754	1
0	1616	45.797220776968	1
0	1650	46.797220776968	1
0	1668	47.111999820695	1
0	1690	47.797220776968	1
0	1719	48.534495695129	1
0	1728	48.797220776968	1
0	1765	49.797220776968	1
0	1796	50.250286977277	1
0	1799	50.532948404399	1
0	1811	50.797220776968	1
0	1835	51.797220776968	1
0	1863	52.616509712758	1
0	1868	52.797220776968	1
0	1899	53.231545160283	1
0	1913	53.797220776968	1
0	1953	54.797220776968	1
0	1959	54.841139959886	1
0	1988	55.470583281595	1
0	1996	55.797220776968	1
0	2017	56.151276758065	1
0	2028	56.723318703081	1
0	2033	56.797220776968	1
0	2073	57.797220776968	1
0	2098	58.440104638739	1
0	2103	58.797220776968	1
0	2117	58.944944624521	1
0	2140	59.797220776968	1
0	2174	60.797220776968	1
0	2205	61.797220776968	1
0	2245	62.797220776968	1
0	2267	63.387958421469	1
0	2272	63.797220776968	1
0	2301	64.449403414702	1
0	2306	64.797220776968	1
0	2347	65.797220776968	1
0	2384	66.797220776968	1
0	2415	67.797220776968	1
0	2443	68.708402206838	1
0	2448	68.797220776968	1
0	2482	69.797220776968	1
0	2510	70.23213774943	1
0	2522	70.797220776968	1
0	2555	71.797220776968	1
0	2577	72.161044880418	1
0	2601	72.797220776968	1
0	2638	73.797220776968	1
0	2679	74.679131914946	1
0	2687	74.797220776968	1
0	2719	75.553187942494	1
0	2722	75.62159477921	1
0	2730	75.797220776968	1
0	2760	76.797220776968	1
0	2794	77.739613549972	1
0	2803	77.797220776968	1
0	2837	78.655959317888	1
0	2846	78.797220776968	1
0	2880	79.797220776968	1
0	2907	80.797220776968	1
0	2940	81.797220776968	1
0	2960	81.937754473742	1
0	2983	82.797220776968	1
0	3004	83.204679709187	1
0	3017	83.797220776968	1
0	3047	84.797220776968	1
0	3074	85.797220776968	1
0	3116	86.797220776968	1
0	3138	87.256497343394	1
0	3146	87.797220776968	1
0	3173	88.797220776968	1
0	3212	89.797220776968	1
0	3243	90.549935546048	1
0	3251	90.797220776968	1
0	3282	91.639649802337	1
0	3287	91.797220776968	1
0	3320	92.797220776968	1
0	3353	93.797220776968	1
0	3380	94.797220776968	1
0	3407	95.797220776968	1
0	3444	96.797220776968	1
0	3478	97.797220776968	1
0	3533	98.797220776968	1
0	3551	99.059570986145	1
0	3573	99.797220776968	1
0	3604	100.797220776968	1
0	3641	101.797220776968	1
0	3678	102.797220776968	1
0	3718	103.797220776968	1
0	3758	104.797220776968	1
0	3764	104.828659562959	1
0	3792	105.797220776968	1
0	3825	106.797220776968	1
0	3855	107.797220776968	1
0	3879	108.797220776968	1
0	3885	108.823003497939	1
0	3931	109.797220776968	1
0	3937	109.838733743312	1
0	3965	110.797220776968	1
0	3983	111.042091716361	1
0	4006	111.797220776968	1
0	4049	112.797220776968	1
0	4086	113.797220776968	1
0	4120	114.797220776968	1
0	4156	115.797220776968	1
0	4192	116.797220776968	1
0	4219	117.797220776968	1
0	4237	118.071049077434	1
0	4252	118.797220776968	1
0	4288	119.797220776968	1
0	4310	120.331760169255	1
0	4318	120.797220776968	1
0	4324	120.820742213341	1
0	4364	121.797220776968	1
0	4398	122.797220776968	1
0	4419	122.99655108057	1
0	4435	123.797220776968	1
0	4449	123.963827855549	1
0	4465	124.797220776968	1
0	4496	125.738831712516	1
0	4499	125.738942416306	1
0	4504	125.797220776968	1
0	4532	126.797220776968	1
0	4575	127.797220776968	1
0	4612	128.797220776968	1
0	4646	129.797220776968	1
0	4652	129.860584898068	1
0	4674	130.346021885412	1
0	4683	130.797220776968	1
0	4720	131.797220776968	1
0	4760	132.797220776968	1
0	4793	133.797220776968	1
0	4832	134.797220776968	1
0	4866	135.797220776968	1
0	4894	136.234982440259	1
0	4909	136.797220776968	1
0	4946	137.797220776968	1
0	4964	138.002553752325	1
0	4975	138.650951979298	1
0	4983	138.797220776968	1
0	4997	138.934236048888	1
0	5023	139.797220776968	1
0	5063	140.797220776968	1
0	5107	141.457861395863	1
0	5115	141.797220776968	1
0	5152	142.797220776968	1
0	5183	143.797220776968	1
0	5218	144.356970948718	1
0	5223	144.797220776968	1
0	5260	145.797220776968	1
0	5278	146.113401106155	1
0	5290	146.797220776968	1
0	5296	146.804440273572	1
0	5343	147.355496147649	1
0	5348	147.797220776968	1
0	5379	148.797220776968	1
0	5416	149.797220776968	1
0	5442	150.431153576602	1
0	5450	150.797220776968	1
0	5456	150.832037966773	1
0	5489	151.797220776968	1
0	5514	152.268530926989	1
0	5522	152.797220776968	1
0	5555	153.797220776968	1
0	5573	154.133754637527	1
0	5580	154.660908863197	1
0	5588	154.797220776968	1
0	5615	155.797220776968	1
0	5645	156.797220776968	1
0	5673	157.797220776968	1
0	5701	158.797220776968	1
0	5707	158.882686411963	1
0	5737	159.797220776968	1
0	5759	160.214371385237	1
0	5771	160.797220776968	1
0	5785	160.907877992815	1
0	5818	161.797220776968	1
0	5852	162.797220776968	1
0	5882	163.797220776968	1
0	5914	164.688081389008	1
0	5919	164.797220776968	1
0	5950	165.797220776968	1
0	5983	166.797220776968	1
0	6011	167.489432782929	1
0	6014	167.783882857555	1
0	6019	167.797220776968	1
0	6052	168.797220776968	1
0	6061	168.901898197537	1
0	6094	169.797220776968	1
0	6122	170.333988833524	1
0	6127	170.797220776968	1
0	6157	171.797220776968	1
0	6178	172.018261439199	1
0	6190	172.797220776968	1
0	6218	173.797220776968	1
0	6253	174.797220776968	1
0	6278	175.128850159908	1
0	6290	175.797220776968	1
0	6315	176.148831827607	1
0	6327	176.797220776968	1
0	6355	177.194767134919	1
0	6368	177.479018157704	1
0	6376	177.797220776968	1
0	6419	178.797220776968	1
0	6463	179.797220776968	1
0	6500	180.797220776968	1
0	6534	181.797220776968	1
0	6574	182.797220776968	1
0	6606	183.588737715718	1
0	6614	183.797220776968	1
0	6663	184.797220776968	1
0	6693	185.797220776968	1
0	6717	186.185628986927	1
0	6735	186.797220776968	1
0	6770	187.672795370479	1
0	6775	187.797220776968	1
0	6824	188.797220776968	1
0	6857	189.797220776968	1
0	6884	190.797220776968	1
0	6909	191.180224660526	1
0	6919	191.57314843232	1
0	6925	191.717986652549	1
0	6928	191.73745747123	1
0	6933	191.797220776968	1
0	6962	192.374625166988	1
0	6973	192.797220776968	1
0	7002	193.301405222068	1
0	7019	193.797220776968	1
0	7054	194.797220776968	1
0	7085	195.797220776968	1
0	7134	196.797220776968	1
0	7171	197.797220776968	1
0	7199	198.486302439635	1
0	7204	198.797220776968	1
0	7240	199.797220776968	1
1	3	0.706318278275	1
1	4	0.706318278275	0
1	34	2.797220776968	1
1	35	2.797220776968	0
1	62	3.797220776968	1
1	63	3.797220776968	0
1	91	4.797220776968	1
1	92	4.797220776968	0
1	114	5.153367122348	1
1	126	5.797220776968	0
1	128	5.797220776968	1
1	167	6.797220776968	0
1	169	6.797220776968	1
1	205	7.797220776968	0
1	207	7.797220776968	1
1	239	8.797220776968	0
1	241	8.797220776968	1
1	270	9.797220776968	0
1	272	9.797220776968	1
1	305	10.349875294046	2
1	308	10.797220776968	1
1	310	10.797220776968	2
1	339	11.797220776968	1
1	341	11.797220776968	2
1	372	12.797220776968	1
1	374	12.797220776968	2
1	406	13.577879443831	3
1	412	13.797220776968	2
1	414	13.797220776968	3
1	443	14.797220776968	2
1	445	14.797220776968	3
1	473	15.322521833915	4
1	485	15.797220776968	3
1	487	15.797220776968	4
1	522	16.797220776968	3
1	524	16.797220776968	4
1	530	16.798176417427	5
1	569	17.797220776968	4
1	571	17.797220776968	5
1	598	18.016341263793	6
1	613	18.797220776968	5
1	615	18.797220776968	6
1	647	19.797220776968	5
1	649	19.797220776968	6
1	663	19.939103141925	7
1	690	20.797220776968	6
1	692	20.797220776968	7
1	720	21.797220776968	6
1	722	21.797220776968	7
1	753	22.229381051325	8
1	759	22.797220776968	7
1	761	22.797220776968	8
1	786	23.797220776968	7
1	788	23.797220776968	8
1	814	24.427205986427	9
1	823	24.797220776968	8
1	825	24.797220776968	9
1	834	24.899619398592	10
1	860	25.657543327157	11
1	863	25.797220776968	10
1	865	25.797220776968	11
1	903	26.443768441765	12
1	906	26.797220776968	11
1	908	26.797220776968	12
1	950	27.797220776968	11
1	952	27.797220776968	12
1	987	28.797220776968	11
1	989	28.797220776968	12
1	1021	29.797220776968	11
1	1023	29.797220776968	12
1	1059	30.797220776968	11
1	1061	30.797220776968	12
1	1099	31.797220776968	11
1	1101	31.797220776968	12
1	1136	32.797220776968	11
1	1138	32.797220776968	12
1	1179	33.797220776968	11
1	1181	33.797220776968	12
1	1222	34.797220776968	11
1	1224	34.797220776968	12
1	1246	35.352762134117	13
1	1253	35.797220776968	12
1	1255	35.797220776968	13
1	1293	36.797220776968	12
1	1295	36.797220776968	13
1	1324	37.797220776968	12
1	1326	37.797220776968	13
1	1355	38.797220776968	12
1	1357	38.797220776968	13
1	1375	38.992399972686	14
1	1398	39.797220776968	13
1	1400	39.797220776968	14
1	1422	40.417567159352	15
1	1438	40.797220776968	14
1	1440	40.797220776968	15
1	1468	41.797220776968	14
1	1470	41.797220776968	15
1	1501	42.797220776968	14
1	1503	42.797220776968	15
1	1527	43.106057703657	16
1	1540	43.797220776968	15
1	1542	43.797220776968	16
1	1577	44.797220776968	15
1	1579	44.797220776968	16
1	1611	45.439804756754	17
1	1614	45.797220776968	16
1	1616	45.797220776968	17
1	1648	46.797220776968	16
1	1650	46.797220776968	17
1	1668	47.111999820695	18
1	1688	47.797220776968	17
1	1690	47.797220776968	18
1	1719	48.534495695129	19
1	1726	48.797220776968	18
1	1728	48.797220776968	19
1	1763	49.797220776968	18
1	1765	49.797220776968	19
1	1796	50.250286977277	20
1	1799	50.532948404399	21
1	1809	50.797220776968	20
1	1811	50.797220776968	21
1	1833	51.797220776968	20
1	1835	51.797220776968	21
1	1863	52.616509712758	22
1	1866	52.797220776968	21
1	1868	52.797220776968	22
1	1899	53.231545160283	23
1	1911	53.797220776968	22
1	1913	53.797220776968	23
1	1951	54.797220776968	22
1	1953	54.797220776968	23
1	1959	54.841139959886	24
1	1988	55.470583281595	25
1	1994	55.797220776968	24
1	1996	55.797220776968	25
1	2017	56.151276758065	26
1	2028	56.723318703081	27
1	2031	56.797220776968	26
1	2033	56.797220776968	27
1	2071	57.797220776968	26
1	2073	57.797220776968	27
1	2098	58.440104638739	28
1	2101	58.797220776968	27
1	2103	58.797220776968	28
1	2117	58.944944624521	29
1	2138	59.797220776968	28
1	2140	59.797220776968	29
1	2172	60.797220776968	28
1	2174	60.797220776968	29
1	2203	61.797220776968	28
1	2205	61.797220776968	29
1	2243	62.797220776968	28
1	2245	62.797220776968	29
1	2267	63.387958421469	30
1	2270	63.797220776968	29
1	2272	63.797220776968	30
1	2301	64.449403414702	31
1	2304	64.797220776968	30
1	2306	64.797220776968	31
1	2345	65.797220776968	30
1	2347	65.797220776968	31
1	2382	66.797220776968	30
1	2384	66.797220776968	31
1	2413	67.797220776968	30
1	2415	67.797220776968	31
1	2443	68.708402206838	32
1	2446	68.797220776968	31
1	2448	68.797220776968	32
1	2480	69.797220776968	31
1	2482	69.797220776968	32
1	2510	70.23213774943	33
1	2520	70.797220776968	32
1	2522	70.797220776968	33
1	2553	71.797220776968	32
1	2555	71.797220776968	33
1	2577	72.161044880418	34
1	2599	72.797220776968	33
1	2601	72.797220776968	34
1	2636	73.797220776968	33
1	2638	73.797220776968	34
1	2679	74.679131914946	35
1	2685	74.797220776968	34
1	2687	74.797220776968	35
1	2719	75.553187942494	36
1	2722	75.62159477921	37
1	2728	75.797220776968	36
1	2730	75.797220776968	37
1	2758	76.797220776968	36
1	2760	76.797220776968	37
1	2794	77.739613549972	38
1	2801	77.797220776968	37
1	2803	77.797220776968	38
1	2837	78.655959317888	39
1	2844	78.797220776968	38
1	2846	78.797220776968	39
1	2878	79.797220776968	38
1	2880	79.797220776968	39
1	2905	80.797220776968	38
1	2907	80.797220776968	39
1	2938	81.797220776968	38
1	2940	81.797220776968	39
1	2960	81.937754473742	40
1	2981	82.797220776968	39
1	2983	82.797220776968	40
1	3004	83.204679709187	41
1	3015	83.797220776968	40
1	3017	83.797220776968	41
1	3045	84.797220776968	40
1	3047	84.797220776968	41
1	3072	85.797220776968	40
1	3074	85.797220776968	41
1	3114	86.797220776968	40
1	3116	86.797220776968	41
1	3138	87.256497343394	42
1	3144	87.797220776968	41
1	3146	87.797220776968	42
1	3171	88.797220776968	41
1	3173	88.797220776968	42
1	3210	89.797220776968	41
1	3212	89.797220776968	42
1	3243	90.549935546048	43
1	3249	90.797220776968	42
1	3251	90.797220776968	43
1	3282	91.639649802337	44
1	3285	91.797220776968	43
1	3287	91.797220776968	44
1	3318	92.797220776968	43
1	3320	92.797220776968	44
1	3351	93.797220776968	43
1	3353	93.797220776968	44
1	3378	94.797220776968	43
1	3380	94.797220776968	44
1	3405	95.797220776968	43
1	3407	95.797220776968	44
1	3442	96.797220776968	43
1	3444	96.797220776968	44
1	3476	97.797220776968	43
1	3478	97.797220776968	44
1	3531	98.797220776968	43
1	3533	98.797220776968	44
1	3551	99.059570986145	45
1	3571	99.797220776968	44
1	3573	99.797220776968	45
1	3602	100.797220776968	44
1	3604	100.797220776968	45
1	3639	101.797220776968	44
1	3641	101.797220776968	45
1	3676	102.797220776968	44
1	3678	102.797220776968	45
1	3716	103.797220776968	44
1	3718	103.797220776968	45
1	3756	104.797220776968	44
1	3758	104.797220776968	45
1	3764	104.828659562959	46
1	3790	105.797220776968	45
1	3792	105.797220776968	46
1	3823	106.797220776968	45
1	3825	106.797220776968	46
1	3853	107.797220776968	45
1	3855	107.797220776968	46
1	3877	108.797220776968	45
1	3879	108.797220776968	46
1	3885	108.823003497939	47
1	3929	109.797220776968	46
1	3931	109.797220776968	47
1	3937	109.838733743312	48
1	3963	110.797220776968	47
1	3965	110.797220776968	48
1	3983	111.042091716361	49
1	4004	111.797220776968	48
1	4006	111.797220776968	49
1	4047	112.797220776968	48
1	4049	112.797220776968	49
1	4084	113.797220776968	48
1	4086	113.797220776968	49
1	4118	114.797220776968	48
1	4120	114.797220776968	49
1	4154	115.797220776968	48
1	4156	115.797220776968	49
1	4190	116.797220776968	48
1	4192	116.797220776968	49
1	4217	117.797220776968	48
1	4219	117.797220776968	49
1	4237	118.071049077434	50
1	4250	118.797220776968	49
1	4252	118.797220776968	50
1	4286	119.797220776968	49
1	4288	119.797220776968	50
1	4310	120.331760169255	51
1	4316	120.797220776968	50
1	4318	120.797220776968	51
1	4324	120.820742213341	52
1	4362	121.797220776968	51
1	4364	121.797220776968	52
1	4396	122.797220776968	51
1	4398	122.797220776968	52
1	4419	122.99655108057	53
1	4433	123.797220776968	52
1	4435	123.797220776968	53
1	4449	123.963827855549	54
1	4463	124.797220776968	53
1	4465	124.797220776968	54
1	4496	125.738831712516	55
1	4499	125.738942416306	56
1	4502	125.797220776968	55
1	4504	125.797220776968	56
1	4530	126.797220776968	55
1	4532	126.797220776968	56
1	4573	127.797220776968	55
1	4575	127.797220776968	56
1	4610	128.797220776968	55
1	4612	128.797220776968	56
1	4644	129.797220776968	55
1	4646	129.797220776968	56
1	4652	129.860584898068	57
1	4674	130.346021885412	58
1	4681	130.797220776968	57
1	4683	130.797220776968	58
1	4718	131.797220776968	57
1	4720	131.797220776968	58
1	4758	132.797220776968	57
1	4760	132.797220776968	58
1	4791	133.797220776968	57
1	4793	133.797220776968	58
1	4830	134.797220776968	57
1	4832	134.797220776968	58
1	4864	135.797220776968	57
1	4866	135.797220776968	58
1	4894	136.234982440259	59
1	4907	136.797220776968	58
1	4909	136.797220776968	59
1	4944	137.797220776968	58
1	4946	137.797220776968	59
1	4964	138.002553752325	60
1	4975	138.650951979298	61
1	4981	138.797220776968	60
1	4983	138.797220776968	61
1	4997	138.934236048888	62
1	5021	139.797220776968	61
1	5023	139.797220776968	62
1	5061	140.797220776968	61
1	5063	140.797220776968	62
1	5107	141.457861395863	63
1	5113	141.797220776968	62
1	5115	141.797220776968	63
1	5150	142.797220776968	62
1	5152	142.797220776968	63
1	5181	143.797220776968	62
1	5183	143.797220776968	63
1	5218	144.356970948718	64
1	5221	144.797220776968	63
1	5223	144.797220776968	64
1	5258	145.797220776968	63
1	5260	145.797220776968	64
1	5278	146.113401106155	65
1	5288	146.797220776968	64
1	5290	146.797220776968	65
1	5296	146.804440273572	66
1	5343	147.355496147649	67
1	5346	147.797220776968	66
1	5348	147.797220776968	67
1	5377	148.797220776968	66
1	5379	148.797220776968	67
1	5414	149.797220776968	66
1	5416	149.797220776968	67
1	5442	150.431153576602	68
1	5448	150.797220776968	67
1	5450	150.797220776968	68
1	5456	150.832037966773	69
1	5487	151.797220776968	68
1	5489	151.797220776968	69
1	5514	152.268530926989	70
1	5520	152.797220776968	69
1	5522	152.797220776968	70
1	5553	153.797220776968	69
1	5555	153.797220776968	70
1	5573	154.133754637527	71
1	5580	154.660908863197	72
1	5586	154.797220776968	71
1	5588	154.797220776968	72
1	5613	155.797220776968	71
1	5615	155.797220776968	72
1	5643	156.797220776968	71
1	5645	156.797220776968	72
1	5671	157.797220776968	71
1	5673	157.797220776968	72
1	5699	158.797220776968	71
1	5701	158.797220776968	72
1	5707	158.882686411963	73
1	5735	159.797220776968	72
1	5737	159.797220776968	73
1	5759	160.214371385237	74
1	5769	160.797220776968	73
1	5771	160.797220776968	74
1	5785	160.907877992815	75
1	5816	161.797220776968	74
1	5818	161.797220776968	75
1	5850	162.797220776968	74
1	5852	162.797220776968	75
1	5880	163.797220776968	74
1	5882	163.797220776968	75
1	5914	164.688081389008	76
1	5917	164.797220776968	75
1	5919	164.797220776968	76
1	5948	165.797220776968	75
1	5950	165.797220776968	76
1	5981	166.797220776968	75
1	5983	166.797220776968	76
1	6011	167.489432782929	77
1	6014	167.783882857555	78
1	6017	167.797220776968	77
1	6019	167.797220776968	78
1	6050	168.797220776968	77
1	6052	168.797220776968	78
1	6061	168.901898197537	79
1	6092	169.797220776968	78
1	6094	169.797220776968	79
1	6122	170.333988833524	80
1	6125	170.797220776968	79
1	6127	170.797220776968	80
1	6155	171.797220776968	79
1	6157	171.797220776968	80
1	6178	172.018261439199	81
1	6188	172.797220776968	80
1	6190	172.797220776968	81
1	6216	173.797220776968	80
1	6218	173.797220776968	81
1	6251	174.797220776968	80
1	6253	174.797220776968	81
1	6278	175.128850159908	82
1	6288	175.797220776968	81
1	6290	175.797220776968	82
1	6315	176.148831827607	83
1	6325	176.797220776968	82
1	6327	176.797220776968	83
1	6355	177.194767134919	84
1	6368	177.479018157704	85
1	6374	177.797220776968	84
1	6376	177.797220776968	85
1	6417	178.797220776968	84
1	6419	178.797220776968	85
1	6461	179.797220776968	84
1	6463	179.797220776968	85
1	6498	180.797220776968	84
1	6500	180.797220776968	85
1	6532	181.797220776968	84
1	6534	181.797220776968	85
1	6572	182.797220776968	84
1	6574	182.797220776968	85
1	6606	183.588737715718	86
1	6612	183.797220776968	85
1	6614	183.797220776968	86
1	6661	184.797220776968	85
1	6663	184.797220776968	86
1	6691	185.797220776968	85
1	6693	185.797220776968	86
1	6717	186.185628986927	87
1	6733	186.797220776968	86
1	6735	186.797220776968	87
1	6770	187.672795370479	88
1	6773	187.797220776968	87
1	6775	187.797220776968	88
1	6822	188.797220776968	87
1	6824	188.797220776968	88
1	6855	189.797220776968	87
1	6857	189.797220776968	88
1	6882	190.797220776968	87
1	6884	190.797220776968	88
1	6909	191.180224660526	89
1	6919	191.57314843232	90
1	6925	191.717986652549	91
1	6928	191.73745747123	92
1	6931	191.797220776968	91
1	6933	191.797220776968	92
1	6962	192.374625166988	93
1	6971	192.797220776968	92
1	6973	192.797220776968	93
1	7002	193.301405222068	94
1	7017	193.797220776968	93
1	7019	193.797220776968	94
1	7052	194.797220776968	93
1	7054	194.797220776968	94
1	7083	195.797220776968	93
1	7085	195.797220776968	94
1	7132	196.797220776968	93
1	7134	196.797220776968	94
1	7169	197.797220776968	93
1	7171	197.797220776968	94
1	7199	198.486302439635	95
1	7202	198.797220776968	94
1	7204	198.797220776968	95
1	7238	199.797220776968	94
1	7240	199.797220776968	95
2	7	0.970256327443	1
2	11	1.087025665629	1
2	15	1.706418278275	1
2	66	3.797320776968	1
2	95	4.797320776968	1
2	131	5.797320776968	1
2	172	6.797320776968	1
2	202	7.716850225486	1
2	210	7.797320776968	1
2	229	8.019311932816	1
2	244	8.797320776968	1
2	275	9.797320776968	1
2	313	10.797320776968	1
2	344	11.797320776968	1
2	363	12.0999404487	1
2	377	12.797320776968	1
2	403	13.56986929108	1
2	417	13.797320776968	1
2	448	14.797320776968	1
2	479	15.612733039778	1
2	490	15.797320776968	1
2	519	16.683864480234	1
2	527	16.797320776968	1
2	574	17.797320776968	1
2	618	18.797320776968	1
2	640	19.354444849482	1
2	652	19.797320776968	1
2	695	20.797320776968	1
2	725	21.797320776968	1
2	764	22.797320776968	1
2	791	23.797320776968	1
2	828	24.797320776968	1
2	849	25.110274892037	1
2	868	25.797320776968	1
2	911	26.797320776968	1
2	926	26.98239801158	1
2	955	27.797320776968	1
2	992	28.797320776968	1
2	1026	29.797320776968	1
2	1064	30.797320776968	1
2	1104	31.797320776968	1
2	1141	32.797320776968	1
2	1169	33.368291295687	1
2	1184	33.797320776968	1
2	1227	34.797320776968	1
2	1258	35.797320776968	1
2	1298	36.797320776968	1
2	1329	37.797320776968	1
2	1360	38.797320776968	1
2	1385	39.342671079391	1
2	1391	39.457324932239	1
2	1403	39.797320776968	1
2	1425	40.657218705521	1
2	1428	40.697598961813	1
2	1435	40.77755155993	1
2	1443	40.797320776968	1
2	1473	41.797320776968	1
2	1487	41.943308337664	1
2	1506	42.797320776968	1
2	1509	42.834147261504	1
2	1545	43.797320776968	1
2	1563	44.145439830231	1
2	1582	44.797320776968	1
2	1619	45.797320776968	1
2	1653	46.797320776968	1
2	1693	47.797320776968	1
2	1731	48.797320776968	1
2	1749	49.153263396401	1
2	1768	49.797320776968	1
2	1771	49.803944227459	1
2	1774	49.822745728787	1
2	1814	50.797320776968	1
2	1838	51.797320776968	1
2	1853	52.024437548969	1
2	1871	52.797320776968	1
2	1916	53.797320776968	1
2	1956	54.797320776968	1
2	1991	55.707002491943	1
2	1999	55.797320776968	1
2	2036	56.797320776968	1
2	2076	57.797320776968	1
2	2106	58.797320776968	1
2	2143	59.797320776968	1
2	2177	60.797320776968	1
2	2208	61.797320776968	1
2	2233	62.257288847373	1
2	2248	62.797320776968	1
2	2275	63.797320776968	1
2	2309	64.797320776968	1
2	2335	65.170925964501	1
2	2350	65.797320776968	1
2	2361	65.922403649315	1
2	2387	66.797320776968	1
2	2418	67.797320776968	1
2	2451	68.797320776968	1
2	2485	69.797320776968	1
2	2525	70.797320776968	1
2	2558	71.797320776968	1
2	2596	72.651144555417	1
2	2604	72.797320776968	1
2	2641	73.797320776968	1
2	2676	74.575894666959	1
2	2690	74.797320776968	1
2	2733	75.797320776968	1
2	2752	76.263671612141	1
2	2763	76.797320776968	1
2	2806	77.797320776968	1
2	2834	78.37537082946	1
2	2849	78.797320776968	1
2	2864	78.978502655907	1
2	2883	79.797320776968	1
2	2902	80.518656375	1
2	2910	80.797320776968	1
2	2935	81.706803371648	1
2	2943	81.797320776968	1
2	2986	82.797320776968	1
2	3020	83.797320776968	1
2	3050	84.797320776968	1
2	3077	85.797320776968	1
2	3111	86.745367631815	1
2	3119	86.797320776968	1
2	3149	87.797320776968	1
2	3176	88.797320776968	1
2	3215	89.797320776968	1
2	3246	90.749340622867	1
2	3254	90.797320776968	1
2	3290	91.797320776968	1
2	3323	92.797320776968	1
2	3348	93.310009030492	1
2	3356	93.797320776968	1
2	3371	94.20251467153	1
2	3383	94.797320776968	1
2	3410	95.797320776968	1
2	3447	96.797320776968	1
2	3481	97.797320776968	1
2	3536	98.797320776968	1
2	3576	99.797320776968	1
2	3591	99.971738175735	1
2	3607	100.797320776968	1
2	3636	101.787666230384	1
2	3644	101.797320776968	1
2	3681	102.797320776968	1
2	3699	103.174065769459	1
2	3710	103.717401910144	1
2	3721	103.797320776968	1
2	3761	104.797320776968	1
2	3795	105.797320776968	1
2	3828	106.797320776968	1
2	3858	107.797320776968	1
2	3882	108.797320776968	1
2	3934	109.797320776968	1
2	3968	110.797320776968	1
2	4009	111.797320776968	1
2	4052	112.797320776968	1
2	4074	113.475667686131	1
2	4089	113.797320776968	1
2	4123	114.797320776968	1
2	4159	115.797320776968	1
2	4195	116.797320776968	1
2	4214	117.733007875194	1
2	4222	117.797320776968	1
2	4255	118.797320776968	1
2	4269	118.942170311864	1
2	4291	119.797320776968	1
2	4321	120.797320776968	1
2	4350	121.450576852046	1
2	4359	121.745768917828	1
2	4367	121.797320776968	1
2	4401	122.797320776968	1
2	4438	123.797320776968	1
2	4460	124.586535828998	1
2	4468	124.797320776968	1
2	4487	125.371681885373	1
2	4507	125.797320776968	1
2	4535	126.797320776968	1
2	4578	127.797320776968	1
2	4615	128.797320776968	1
2	4626	128.927968559041	1
2	4649	129.797320776968	1
2	4686	130.797320776968	1
2	4711	131.254195125892	1
2	4723	131.797320776968	1
2	4726	131.840098042865	1
2	4751	132.592956745908	1
2	4763	132.797320776968	1
2	4796	133.797320776968	1
2	4811	134.053412076386	1
2	4824	134.518462113156	1
2	4835	134.797320776968	1
2	4869	135.797320776968	1
2	4912	136.797320776968	1
2	4930	137.140406849477	1
2	4937	137.390472029324	1
2	4949	137.797320776968	1
2	4986	138.797320776968	1
2	5018	139.63739302842	1
2	5026	139.797320776968	1
2	5066	140.797320776968	1
2	5097	141.304149509712	1
2	5118	141.797320776968	1
2	5155	142.797320776968	1
2	5186	143.797320776968	1
2	5189	143.86499821767	1
2	5204	144.039215384187	1
2	5226	144.797320776968	1
2	5263	145.797320776968	1
2	5293	146.797320776968	1
2	5299	146.805848316489	1
2	5351	147.797320776968	1
2	5382	148.797320776968	1
2	5401	149.067685274866	1
2	5411	149.729505037218	1
2	5419	149.797320776968	1
2	5453	150.797320776968	1
2	5481	151.495266127132	1
2	5492	151.797320776968	1
2	5525	152.797320776968	1
2	5558	153.797320776968	1
2	5591	154.797320776968	1
2	5618	155.797320776968	1
2	5648	156.797320776968	1
2	5676	157.797320776968	1
2	5704	158.797320776968	1
2	5725	159.083313693308	1
2	5740	159.797320776968	1
2	5774	160.797320776968	1
2	5810	161.54907461937	1
2	5813	161.575725109027	1
2	5821	161.797320776968	1
2	5855	162.797320776968	1
2	5885	163.797320776968	1
2	5922	164.797320776968	1
2	5953	165.797320776968	1
2	5986	166.797320776968	1
2	6022	167.797320776968	1
2	6055	168.797320776968	1
2	6058	168.895039770557	1
2	6097	169.797320776968	1
2	6111	169.920469055816	1
2	6130	170.797320776968	1
2	6160	171.797320776968	1
2	6193	172.797320776968	1
2	6221	173.797320776968	1
2	6228	173.884249738034	1
2	6256	174.797320776968	1
2	6293	175.797320776968	1
2	6330	176.797320776968	1
2	6333	176.859109246713	1
2	6365	177.387650174984	1
2	6371	177.497464920086	1
2	6379	177.797320776968	1
2	6422	178.797320776968	1
2	6466	179.797320776968	1
2	6484	180.083760637678	1
2	6503	180.797320776968	1
2	6537	181.797320776968	1
2	6559	182.313535481492	1
2	6577	182.797320776968	1
2	6617	183.797320776968	1
2	6666	184.797320776968	1
2	6681	185.103273664018	1
2	6696	185.797320776968	1
2	6730	186.44187940799	1
2	6738	186.797320776968	1
2	6778	187.797320776968	1
2	6827	188.797320776968	1
2	6830	188.82087191066	1
2	6849	189.28371385457	1
2	6860	189.797320776968	1
2	6887	190.797320776968	1
2	6936	191.797320776968	1
2	6959	192.300144317824	1
2	6976	192.797320776968	1
2	7022	193.797320776968	1
2	7057	194.797320776968	1
2	7088	195.797320776968	1
2	7129	196.752312296708	1
2	7137	196.797320776968	1
2	7152	197.134904388505	1
2	7174	197.797320776968	1
2	7207	198.797320776968	1
2	7225	199.209394576711	1
2	7235	199.557784897459	1
2	7243	199.797320776968	1
2	7246	199.868356068469	1
3	7	0.970256327443	1