version 3
run General-0-20250427-21:01:01-9654
attr configname General
attr datetime 20250427-21:01:01
attr datetimef 20250427-210101
attr experiment General
attr inifile omnetpp.ini
attr iterationvars ""
attr iterationvarsd ""
attr iterationvarsf ""
attr measurement ""
attr network Network
attr processid 9654
attr repetition 0
attr replication #0
attr resultdir results
attr runnumber 0
attr seedset 0
config network Network
config sim-time-limit 200s
config Network.nodeTx.gen.generationInterval exponential(1)
config Network.nodeTx.gen.packetByteSize 12500
config Network.nodeTx.queue.bufferSize 2000000
config Network.queue.bufferSize 200
config Network.nodeRx.queue.bufferSize 200

vector 0 Network.nodeTx.queue BufferSize ETV
vector 1 Network.queue BufferSize ETV
vector 2 Network.nodeRx.queue BufferSize ETV
vector 3 Network.nodeRx.sink Delay ETV
0	2	0.795874504566	1
0	13	1.69443489305	1
0	24	2.950365651097	1
0	35	4.809969863172	1
0	46	5.733192994643	1
0	57	7.684738330527	1
0	68	8.471939470509	1
0	79	10.350903524712	1
0	90	10.901952011382	1
0	101	11.878958437775	1
0	112	12.917117738439	1
0	123	13.402245902161	1
0	134	13.977765099044	1
0	143	14.330924238182	1
0	156	16.554448660218	1
0	159	16.612833329311	1
0	175	19.927745609239	1
0	184	20.246101750081	1
0	197	20.729703855029	1
0	208	21.37915020328	1
0	219	22.948046320903	1
0	230	24.620257521228	1
0	241	25.372931634541	1
0	252	26.026814201762	1
0	263	26.866247054662	1
0	274	27.365119063678	1
0	285	29.963373149527	1
0	296	31.771742413802	1
0	299	31.845427769267	1
0	313	32.25700576551	1
0	316	32.348166791634	1
0	334	33.392779299942	1
0	337	33.413204888341	1
0	351	33.872453025596	1
0	364	35.659940689035	1
0	375	38.810110617711	1
0	386	40.315894876348	1
0	392	40.467125730013	1
0	407	42.507439987955	1
0	418	44.548332203867	1
0	429	48.393554073009	1
0	440	49.035263245687	1
0	451	50.640502802749	1
0	462	52.254504877642	1
0	473	52.873434337269	1
0	484	53.608398758459	1
0	495	55.124934732449	1
0	506	56.260873674159	1
0	512	56.386748083597	1
0	527	57.661975785821	1
0	538	58.68340766017	1
0	549	59.555728855212	1
0	555	59.710458535712	1
0	570	60.481293194179	1
0	581	63.375713672166	1
0	592	64.79707835226	1
0	603	65.534905644016	1
0	609	65.646851804649	1
0	624	66.182417524877	1
0	635	66.824112226908	1
0	644	67.131392579061	1
0	655	67.337595861091	1
0	668	68.825850686843	1
0	679	70.161140871467	1
0	690	70.77022329465	1
0	699	71.014271785387	1
0	712	71.854606490999	1
0	718	71.999884518291	1
0	721	72.018853087492	1
0	737	72.410623898169	1
0	751	73.372004837235	1
0	757	73.534141326681	1
0	772	74.481138003856	1
0	781	74.732579935931	1
0	794	75.692127913299	1
0	805	76.180684962607	1
0	816	79.058599983885	1
0	827	81.387513358099	1
0	838	82.532652312799	1
0	849	83.130398389617	1
0	860	83.575916884668	1
0	871	84.525411468165	1
0	882	85.099943874906	1
0	893	87.4262949366	1
0	904	88.622402736057	1
0	910	88.726963961832	1
0	913	88.789079252298	1
0	933	92.289292936753	1
0	944	93.388205404304	1
0	955	94.447039535792	1
0	966	95.557636981479	1
0	972	95.745063047497	1
0	985	95.98126975358	1
0	998	96.424673782201	1
0	1004	96.562702470629	1
0	1019	97.95174516042	1
0	1028	98.330707124703	1
0	1041	99.266768684474	1
0	1052	99.718870744699	1
0	1061	100.111983302003	1
0	1074	100.956411095531	1
0	1077	100.995594251944	1
0	1093	101.572918562751	1
0	1104	102.578789567918	1
0	1115	107.033286414094	1
0	1126	110.226233056148	1
0	1132	110.333868164304	1
0	1147	111.391694577656	1
0	1156	111.625996096432	1
0	1169	112.634015341852	1
0	1175	112.809928887278	1
0	1190	118.170029237521	1
0	1201	119.228771952615	1
0	1212	120.100687806241	1
0	1221	120.392768339508	1
0	1234	120.927833016591	1
0	1245	121.555774597582	1
0	1256	122.199555599185	1
0	1265	122.479832607664	1
0	1278	123.456696681735	1
0	1284	123.629824137881	1
0	1297	124.042325367803	1
0	1305	124.159280777595	1
0	1320	125.282449079128	1
0	1331	126.350521276278	1
0	1340	126.732077119652	1
0	1348	126.880789388904	1
0	1363	128.387424722177	1
0	1372	128.606305318684	1
0	1385	131.593495210536	1
0	1396	132.053509168276	1
0	1407	133.139778549154	1
0	1418	134.860110206871	1
0	1421	134.873774785302	1
0	1426	134.975919666827	1
0	1445	135.951021600983	1
0	1456	137.770840520267	1
0	1467	138.890654886021	1
0	1473	138.99168966133	1
0	1488	142.565278033674	1
0	1499	146.314309493258	1
0	1510	148.41963079405	1
0	1521	149.051967390446	1
0	1532	149.764550983779	1
0	1543	153.526478268283	1
0	1546	153.583805194707	1
0	1562	154.512283691608	1
0	1573	155.112230578249	1
0	1584	156.456475850401	1
0	1587	156.476665978547	1
0	1589	156.516642277605	2
0	1609	157.099520666472	1
0	1620	157.431930907436	1
0	1633	161.323501030281	1
0	1639	161.451557795592	1
0	1652	161.896977257512	1
0	1663	162.248153346893	1
0	1676	162.903799631257	1
0	1682	163.030188267682	1
0	1697	164.197061794231	1
0	1706	164.579762743093	1
0	1719	166.703999940095	1
0	1730	167.238884315852	1
0	1741	169.742796098937	1
0	1744	169.809093500419	1
0	1756	170.053488948501	1
0	1770	171.232678475566	1
0	1781	172.065521991632	1
0	1792	172.901619523602	1
0	1803	174.904860046109	1
0	1812	175.213274886207	1
0	1825	175.924522823424	1
0	1836	176.665281773871	1
0	1847	179.150864130848	1
0	1850	179.249514439266	1
0	1866	181.789818947225	1
0	1877	182.647714588299	1
0	1880	182.734485070639	1
0	1896	185.383740999315	1
0	1905	185.709081414844	1
0	1916	186.092641628943	1
0	1919	186.102042379607	1
0	1937	187.202888289698	1
0	1948	189.0502159407	1
0	1954	189.191546654261	1
0	1969	190.23332730844	1
0	1980	191.493261118549	1
0	1991	193.334543590036	1
0	2000	193.676197757062	1
0	2011	193.983715480824	1
0	2022	194.186065919391	1
0	2035	194.693266042648	1
0	2046	195.576395084607	1
0	2057	196.381192484408	1
0	2060	196.401504943204	1
0	2070	196.581757195189	1
0	2086	198.347498267602	1
0	2097	198.809229163646	1
0	2100	198.813935704138	1
0	2105	198.972277210369	1
1	5	0.895974504566	1
1	16	1.79453489305	1
1	27	3.050465651097	1
1	38	4.910069863172	1
1	49	5.833292994643	1
1	60	7.784838330527	1
1	71	8.572039470509	1
1	82	10.451003524712	1
1	93	11.002052011382	1
1	104	11.979058437775	1
1	115	13.017217738439	1
1	126	13.502345902161	1
1	137	14.077865099044	1
1	148	14.431024238182	1
1	161	16.654548660218	1
1	164	16.754548660218	1
1	178	20.027845609239	1
1	189	20.346201750081	1
1	200	20.829803855029	1
1	211	21.47925020328	1
1	222	23.048146320903	1
1	233	24.720357521228	1
1	244	25.473031634541	1
1	255	26.126914201762	1
1	266	26.966347054662	1
1	277	27.465219063678	1
1	288	30.063473149527	1
1	301	31.871842413802	1
1	304	31.971842413802	1
1	318	32.35710576551	1
1	323	32.45710576551	1
1	339	33.492879299942	1
1	342	33.592879299942	1
1	354	33.972553025596	1
1	367	35.760040689035	1
1	378	38.910210617711	1
1	389	40.415994876348	1
1	398	40.567225730013	1
1	410	42.607539987955	1
1	421	44.648432203867	1
1	432	48.493654073009	1
1	443	49.135363245687	1
1	454	50.740602802749	1
1	465	52.354604877642	1
1	476	52.973534337269	1
1	487	53.708498758459	1
1	498	55.225034732449	1
1	509	56.360973674159	1
1	518	56.486848083597	1
1	530	57.762075785821	1
1	541	58.78350766017	1
1	552	59.655828855212	1
1	561	59.810558535712	1
1	573	60.581393194179	1
1	584	63.475813672166	1
1	595	64.89717835226	1
1	606	65.635005644016	1
1	615	65.746951804649	1
1	627	66.282517524877	1
1	638	66.924212226908	1
1	649	67.231492579061	1
1	658	67.437695861091	1
1	671	68.925950686843	1
1	682	70.261240871467	1
1	693	70.87032329465	1
1	702	71.114371785387	1
1	715	71.954706490999	1
1	726	72.099984518291	1
1	729	72.199984518291	1
1	742	72.510723898169	1
1	754	73.472104837235	1
1	763	73.634241326681	1
1	775	74.581238003856	1
1	784	74.832679935931	1
1	797	75.792227913299	1
1	808	76.280784962607	1
1	819	79.158699983885	1
1	830	81.487613358099	1
1	841	82.632752312799	1
1	852	83.230498389617	1
1	863	83.676016884668	1
1	874	84.625511468165	1
1	885	85.200043874906	1
1	896	87.5263949366	1
1	907	88.722502736057	1
1	918	88.827063961832	1
1	921	88.927063961832	1
1	936	92.389392936753	1
1	947	93.488305404304	1
1	958	94.547139535792	1
1	969	95.657736981479	1
1	978	95.845163047497	1
1	988	96.08136975358	1
1	1001	96.524773782201	1
1	1010	96.662802470629	1
1	1022	98.05184516042	1
1	1033	98.430807124703	1
1	1044	99.366868684474	1
1	1055	99.818970744699	1
1	1066	100.212083302003	1
1	1079	101.056511095531	1
1	1082	101.156511095531	1
1	1096	101.673018562751	1
1	1107	102.678889567918	1
1	1118	107.133386414094	1
1	1129	110.326333056148	1
1	1138	110.433968164304	1
1	1150	111.491794577656	1
1	1159	111.726096096432	1
1	1172	112.734115341852	1
1	1181	112.910028887278	1
1	1193	118.270129237521	1
1	1204	119.328871952615	1
1	1215	120.200787806241	1
1	1224	120.492868339508	1
1	1237	121.027933016591	1
1	1248	121.655874597582	1
1	1259	122.299655599185	1
1	1268	122.579932607664	1
1	1281	123.556796681735	1
1	1290	123.729924137881	1
1	1302	124.142425367803	1
1	1311	124.259380777595	1
1	1323	125.382549079128	1
1	1334	126.450621276278	1
1	1345	126.832177119652	1
1	1354	126.980889388904	1
1	1366	128.487524722177	1
1	1375	128.706405318684	1
1	1388	131.693595210536	1
1	1399	132.153609168276	1
1	1410	133.239878549154	1
1	1423	134.960210206871	1
1	1428	135.060210206871	1
1	1433	135.160210206871	1
1	1448	136.051121600983	1
1	1459	137.870940520267	1
1	1470	138.990754886021	1
1	1479	139.09178966133	1
1	1491	142.665378033674	1
1	1502	146.414409493258	1
1	1513	148.51973079405	1
1	1524	149.152067390446	1
1	1535	149.864650983779	1
1	1548	153.626578268283	1
1	1551	153.726578268283	1
1	1565	154.612383691608	1
1	1576	155.212330578249	1
1	1591	156.556575850401	1
1	1594	156.656575850401	1
1	1599	156.756575850401	1
1	1612	157.199620666472	1
1	1625	157.532030907436	1
1	1636	161.423601030281	1
1	1645	161.551657795592	1
1	1657	161.997077257512	1
1	1668	162.348253346893	1
1	1679	163.003899631257	1
1	1688	163.130288267682	1
1	1700	164.297161794231	1
1	1711	164.679862743093	1
1	1722	166.804099940095	1
1	1733	167.338984315852	1
1	1746	169.842896098937	1
1	1749	169.942896098937	1
1	1761	170.153588948501	1
1	1773	171.332778475566	1
1	1784	172.165621991632	1
1	1795	173.001719523602	1
1	1806	175.004960046109	1
1	1817	175.313374886207	1
1	1828	176.024622823424	1
1	1839	176.765381773871	1
1	1852	179.250964130848	1
1	1855	179.350964130848	1
1	1869	181.889918947225	1
1	1882	182.747814588299	1
1	1885	182.847814588299	1
1	1899	185.483840999315	1
1	1910	185.809181414844	1
1	1923	186.192741628943	1
1	1926	186.292741628943	1
1	1940	187.302988289698	1
1	1951	189.1503159407	1
1	1960	189.291646654261	1
1	1972	190.33342730844	1
1	1983	191.593361118549	1
1	1994	193.434643590036	1
1	2005	193.776297757062	1
1	2016	194.083815480824	1
1	2025	194.286165919391	1
1	2038	194.793366042648	1
1	2049	195.676495084607	1
1	2062	196.481292484408	1
1	2065	196.581292484408	1
1	2075	196.681857195189	1
1	2089	198.447598267602	1
1	2102	198.909329163646	1
1	2107	199.009329163646	1
1	2112	199.109329163646	1
2	8	0.996074504566	1
2	19	1.89463489305	1
2	30	3.150565651097	1
2	41	5.010169863172	1
2	52	5.933392994643	1
2	63	7.884938330527	1
2	74	8.672139470509	1
2	85	10.551103524712	1
2	96	11.102152011382	1
2	107	12.079158437775	1
2	118	13.117317738439	1
2	129	13.602445902161	1
2	140	14.177965099044	1
2	151	14.531124238182	1
2	166	16.754648660218	1
2	169	16.854648660218	1
2	181	20.127945609239	1
2	192	20.446301750081	1
2	203	20.929903855029	1
2	214	21.57935020328	1
2	225	23.148246320903	1
2	236	24.820457521228	1
2	247	25.573131634541	1
2	258	26.227014201762	1
2	269	27.066447054662	1
2	280	27.565319063678	1
2	291	30.163573149527	1
2	306	31.971942413802	1
2	309	32.071942413802	1
2	325	32.45720576551	1
2	328	32.55720576551	1
2	344	33.592979299942	1
2	347	33.692979299942	1
2	359	34.072653025596	1
2	370	35.860140689035	1
2	381	39.010310617711	1
2	395	40.516094876348	1
2	401	40.667325730013	1
2	413	42.707639987955	1
2	424	44.748532203867	1
2	435	48.593754073009	1
2	446	49.235463245687	1
2	457	50.840702802749	1
2	468	52.454704877642	1
2	479	53.073634337269	1
2	490	53.808598758459	1
2	501	55.325134732449	1
2	515	56.461073674159	1
2	521	56.586948083597	1
2	533	57.862175785821	1
2	544	58.88360766017	1
2	558	59.755928855212	1
2	564	59.910658535712	1
2	576	60.681493194179	1
2	587	63.575913672166	1
2	598	64.99727835226	1
2	612	65.735105644016	1
2	618	65.847051804649	1
2	630	66.382617524877	1
2	641	67.024312226908	1
2	652	67.331592579061	1
2	663	67.537795861091	1
2	674	69.026050686843	1
2	685	70.361340871467	1
2	696	70.97042329465	1
2	707	71.214471785387	1
2	723	72.054806490999	1
2	731	72.200084518291	1
2	735	72.300084518291	1
2	745	72.610823898169	1
2	760	73.572204837235	1
2	766	73.734341326681	1
2	778	74.681338003856	1
2	789	74.932779935931	1
2	800	75.892327913299	1
2	811	76.380884962607	1
2	822	79.258799983885	1
2	833	81.587713358099	1
2	844	82.732852312799	1
2	855	83.330598389617	1
2	866	83.776116884668	1
2	877	84.725611468165	1
2	888	85.300143874906	1
2	899	87.6264949366	1
2	915	88.822602736057	1
2	923	88.927163961832	1
2	927	89.027163961832	1
2	939	92.489492936753	1
2	950	93.588405404304	1
2	961	94.647239535792	1
2	975	95.757836981479	1
2	981	95.945263047497	1
2	993	96.18146975358	1
2	1007	96.624873782201	1
2	1013	96.762902470629	1
2	1025	98.15194516042	1
2	1036	98.530907124703	1
2	1047	99.466968684474	1
2	1058	99.919070744699	1
2	1069	100.312183302003	1
2	1084	101.156611095531	1
2	1087	101.256611095531	1
2	1099	101.773118562751	1
2	1110	102.778989567918	1
2	1121	107.233486414094	1
2	1135	110.426433056148	1
2	1141	110.534068164304	1
2	1153	111.591894577656	1
2	1164	111.826196096432	1
2	1178	112.834215341852	1
2	1184	113.010128887278	1
2	1196	118.370229237521	1
2	1207	119.428971952615	1
2	1218	120.300887806241	1
2	1229	120.592968339508	1
2	1240	121.128033016591	1
2	1251	121.755974597582	1
2	1262	122.399755599185	1
2	1273	122.680032607664	1
2	1287	123.656896681735	1
2	1293	123.830024137881	1
2	1308	124.242525367803	1
2	1314	124.359480777595	1
2	1326	125.482649079128	1
2	1337	126.550721276278	1
2	1351	126.932277119652	1
2	1357	127.080989388904	1
2	1369	128.587624722177	1
2	1380	128.806505318684	1
2	1391	131.793695210536	1
2	1402	132.253709168276	1
2	1413	133.339978549154	1
2	1430	135.060310206871	1
2	1435	135.160310206871	1
2	1439	135.260310206871	1
2	1451	136.151221600983	1
2	1462	137.971040520267	1
2	1476	139.090854886021	1
2	1482	139.19188966133	1
2	1494	142.765478033674	1
2	1505	146.514509493258	1
2	1516	148.61983079405	1
2	1527	149.252167390446	1
2	1538	149.964750983779	1
2	1553	153.726678268283	1
2	1556	153.826678268283	1
2	1568	154.712483691608	1
2	1579	155.312430578249	1
2	1596	156.656675850401	1
2	1601	156.756675850401	1
2	1605	156.856675850401	1
2	1617	157.299720666472	1
2	1628	157.632130907436	1
2	1642	161.523701030281	1
2	1648	161.651757795592	1
2	1660	162.097177257512	1
2	1671	162.448353346893	1
2	1685	163.103999631257	1
2	1691	163.230388267682	1
2	1703	164.397261794231	1
2	1714	164.779962743093	1
2	1725	166.904199940095	1
2	1736	167.439084315852	1
2	1751	169.942996098937	1
2	1754	170.042996098937	1
2	1764	170.253688948501	1
2	1776	171.432878475566	1
2	1787	172.265721991632	1
2	1798	173.101819523602	1
2	1809	175.105060046109	1
2	1820	175.413474886207	1
2	1831	176.124722823424	1
2	1842	176.865481773871	1
2	1857	179.351064130848	1
2	1860	179.451064130848	1
2	1872	181.990018947225	1
2	1887	182.847914588299	1
2	1890	182.947914588299	1
2	1902	185.583940999315	1
2	1913	185.909281414844	1
2	1928	186.292841628943	1
2	1931	186.392841628943	1
2	1943	187.403088289698	1
2	1957	189.2504159407	1
2	1963	189.391746654261	1
2	1975	190.43352730844	1
2	1986	191.693461118549	1
2	1997	193.534743590036	1
2	2008	193.876397757062	1
2	2019	194.183915480824	1
2	2030	194.386265919391	1
2	2041	194.893466042648	1
2	2052	195.776595084607	1
2	2067	196.581392484408	1
2	2073	196.681392484408	1
2	2080	196.781957195189	1
2	2092	198.547698267602	1
2	2109	199.009429163646	1
2	2114	199.109429163646	1
2	2118	199.209429163646	1
3	10	1.196074504566	0.4002
3	21	2.09463489305	0.4002
3	32	3.350565651097	0.4002
3	43	5.210169863172	0.4002
3	54	6.133392994643	0.4002
3	65	8.084938330527	0.4002
3	76	8.872139470509	0.4002
3	87	10.751103524712	0.4002
3	98	11.302152011382	0.4002
3	109	12.279158437775	0.4002
3	120	13.317317738439	0.4002
3	131	13.802445902161	0.4002
3	145	14.377965099044	0.4002
3	153	14.731124238182	0.4002
3	170	16.954648660218	0.4002
3	172	17.154648660218	0.541815330907
3	186	20.327945609239	0.4002
3	194	20.646301750081	0.4002
3	205	21.129903855029	0.4002
3	216	21.77935020328	0.4002
3	227	23.348246320903	0.4002
3	238	25.020457521228	0.4002
3	249	25.773131634541	0.4002
3	260	26.427014201762	0.4002
3	271	27.266447054662	0.4002
3	282	27.765319063678	0.4002
3	293	30.363573149527	0.4002
3	310	32.171942413802	0.4002
3	320	32.371942413802	0.526514644535
3	329	32.65720576551	0.4002
3	331	32.85720576551	0.509038973876
3	348	33.792979299942	0.4002
3	356	33.992979299942	0.579774411601
3	361	34.272653025596	0.4002
3	372	36.060140689035	0.4002
3	383	39.210310617711	0.4002
3	402	40.716094876348	0.4002
3	404	40.916094876348	0.448969146335
3	415	42.907639987955	0.4002
3	426	44.948532203867	0.4002
3	437	48.793754073009	0.4002
3	448	49.435463245687	0.4002
3	459	51.040702802749	0.4002
3	470	52.654704877642	0.4002
3	481	53.273634337269	0.4002
3	492	54.008598758459	0.4002
3	503	55.525134732449	0.4002
3	522	56.661073674159	0.4002
3	524	56.861073674159	0.474325590562
3	535	58.062175785821	0.4002
3	546	59.08360766017	0.4002
3	565	59.955928855212	0.4002
3	567	60.155928855212	0.4454703195
3	578	60.881493194179	0.4002
3	589	63.775913672166	0.4002
3	600	65.19727835226	0.4002
3	619	65.935105644016	0.4002
3	621	66.135105644016	0.488253839367
3	632	66.582617524877	0.4002
3	646	67.224312226908	0.4002
3	660	67.531592579061	0.4002
3	665	67.737795861091	0.4002
3	676	69.226050686843	0.4002
3	687	70.561340871467	0.4002
3	704	71.17042329465	0.4002
3	709	71.414471785387	0.4002
3	732	72.254806490999	0.4002
3	739	72.454806490999	0.454921972708
3	746	72.654806490999	0.635953403507
3	748	72.854806490999	0.44418259283
3	767	73.772204837235	0.4002
3	769	73.972204837235	0.438063510554
3	786	74.881338003856	0.4002
3	791	75.132779935931	0.4002
3	802	76.092327913299	0.4002
3	813	76.580884962607	0.4002
3	824	79.458799983885	0.4002
3	835	81.787713358099	0.4002
3	846	82.932852312799	0.4002
3	857	83.530598389617	0.4002
3	868	83.976116884668	0.4002
3	879	84.925611468165	0.4002
3	890	85.500143874906	0.4002
3	901	87.8264949366	0.4002
3	924	89.022602736057	0.4002
3	928	89.222602736057	0.495638774225
3	930	89.422602736057	0.633523483759
3	941	92.689492936753	0.4002
3	952	93.788405404304	0.4002
3	963	94.847239535792	0.4002
3	982	95.957836981479	0.4002
3	990	96.157836981479	0.412773933982
3	995	96.38146975358	0.4002
3	1014	96.824873782201	0.4002
3	1016	97.024873782201	0.462171311572
3	1030	98.35194516042	0.4002
3	1038	98.730907124703	0.4002
3	1049	99.666968684474	0.4002
3	1063	100.119070744699	0.4002
3	1071	100.512183302003	0.4002
3	1088	101.356611095531	0.4002
3	1090	101.556611095531	0.561016843587
3	1101	101.973118562751	0.4002
3	1112	102.978989567918	0.4002
3	1123	107.433486414094	0.4002
3	1142	110.626433056148	0.4002
3	1144	110.826433056148	0.492564891844
3	1161	111.791894577656	0.4002
3	1166	112.026196096432	0.4002
3	1185	113.034215341852	0.4002
3	1187	113.234215341852	0.424286454574
3	1198	118.570229237521	0.4002
3	1209	119.628971952615	0.4002
3	1226	120.500887806241	0.4002
3	1231	120.792968339508	0.4002
3	1242	121.328033016591	0.4002
3	1253	121.955974597582	0.4002
3	1270	122.599755599185	0.4002
3	1275	122.880032607664	0.4002
3	1294	123.856896681735	0.4002
3	1299	124.056896681735	0.427072543854
3	1315	124.442525367803	0.4002
3	1317	124.642525367803	0.483244590208
3	1328	125.682649079128	0.4002
3	1342	126.750721276278	0.4002
3	1358	127.132277119652	0.4002
3	1360	127.332277119652	0.451487730748
3	1377	128.787624722177	0.4002
3	1382	129.006505318684	0.4002
3	1393	131.993695210536	0.4002
3	1404	132.453709168276	0.4002
3	1415	133.539978549154	0.4002
3	1437	135.260310206871	0.4002
3	1440	135.460310206871	0.586535421569
3	1442	135.660310206871	0.684390540044
3	1453	136.351221600983	0.4002
3	1464	138.171040520267	0.4002
3	1483	139.290854886021	0.4002
3	1485	139.490854886021	0.499165224691
3	1496	142.965478033674	0.4002
3	1507	146.714509493258	0.4002
3	1518	148.81983079405	0.4002
3	1529	149.452167390446	0.4002
3	1540	150.164750983779	0.4002
3	1557	153.926678268283	0.4002
3	1559	154.126678268283	0.542873073576
3	1570	154.912483691608	0.4002
3	1581	155.512430578249	0.4002
3	1603	156.856675850401	0.4002
3	1606	157.056675850401	0.580009871854
3	1614	157.256675850401	0.740033572796
3	1622	157.499720666472	0.4002
3	1630	157.832130907436	0.4002
3	1649	161.723701030281	0.4002
3	1654	161.923701030281	0.472143234689
3	1665	162.297177257512	0.4002
3	1673	162.648353346893	0.4002
3	1692	163.303999631257	0.4002
3	1694	163.503999631257	0.473811363575
3	1708	164.597261794231	0.4002
3	1716	164.979962743093	0.4002
3	1727	167.104199940095	0.4002
3	1738	167.639084315852	0.4002
3	1758	170.142996098937	0.4002
3	1765	170.342996098937	0.533902598518
3	1767	170.542996098937	0.489507150436
3	1778	171.632878475566	0.4002
3	1789	172.465721991632	0.4002
3	1800	173.301819523602	0.4002
3	1814	175.305060046109	0.4002
3	1822	175.613474886207	0.4002
3	1833	176.324722823424	0.4002
3	1844	177.065481773871	0.4002
3	1861	179.551064130848	0.4002
3	1863	179.751064130848	0.501549691582
3	1874	182.190018947225	0.4002
3	1891	183.047914588299	0.4002
3	1893	183.247914588299	0.51342951766
3	1907	185.783940999315	0.4002
3	1920	186.109281414844	0.4002
3	1932	186.492841628943	0.4002
3	1934	186.692841628943	0.590799249336
3	1945	187.603088289698	0.4002
3	1964	189.4504159407	0.4002
3	1966	189.6504159407	0.458869286439
3	1977	190.63352730844	0.4002
3	1988	191.893461118549	0.4002
3	2002	193.734743590036	0.4002
3	2013	194.076397757062	0.4002
3	2027	194.383915480824	0.4002
3	2032	194.586265919391	0.4002
3	2043	195.093466042648	0.4002
3	2054	195.976595084607	0.4002
3	2077	196.781392484408	0.4002
3	2081	196.981392484408	0.579887541204
3	2083	197.181392484408	0.599635289219
3	2094	198.747698267602	0.4002
3	2116	199.209429163646	0.4002
3	2119	199.409429163646	0.595493459508
3	2121	199.609429163646	0.637151953277

