version 3
run General-0-20250526-15:33:09-7671
attr configname General
attr datetime 20250526-15:33:09
attr datetimef 20250526-153309
attr experiment General
attr inifile omnetpp.ini
attr iterationvars ""
attr iterationvarsd ""
attr iterationvarsf ""
attr measurement ""
attr network Network
attr processid 7671
attr repetition 0
attr replication #0
attr resultdir results
attr runnumber 0
attr seedset 0
config network Network
config sim-time-limit 200s
config "Network.node[{0, 2}].app.interArrivalTime" exponential(3)
config "Network.node[{0, 2}].app.packetByteSize" 125000
config "Network.node[{0, 2}].app.destination" 5
config Network.node[{5}].net.interFeedBackTime exponential(3)

vector 0 Network.node[0].lnk[0] "Lnk use" ETV
vector 1 Network.node[0].lnk[0] "Buffer Size" ETV
vector 2 Network.node[7].lnk[1] "Lnk use" ETV
vector 3 Network.node[7].lnk[0] "Lnk use" ETV
vector 4 Network.node[7].lnk[0] "Buffer Size" ETV
vector 5 Network.node[6].lnk[1] "Lnk use" ETV
vector 6 Network.node[6].lnk[0] "Lnk use" ETV
vector 7 Network.node[6].lnk[0] "Buffer Size" ETV
vector 8 Network.node[2].lnk[0] "Lnk use" ETV
vector 9 Network.node[2].lnk[0] "Buffer Size" ETV
vector 10 Network.node[5].lnk[1] "Lnk use" ETV
vector 11 Network.node[5].app "Delay Source 0" ETV
vector 12 Network.node[5].app "HopCount Source 0" ETV
vector 13 Network.node[5].lnk[0] "Lnk use" ETV
vector 14 Network.node[5].lnk[0] "Buffer Size" ETV
vector 15 Network.node[4].lnk[1] "Lnk use" ETV
vector 16 Network.node[4].lnk[0] "Lnk use" ETV
vector 17 Network.node[4].lnk[0] "Buffer Size" ETV
vector 18 Network.node[3].lnk[1] "Lnk use" ETV
vector 19 Network.node[3].lnk[0] "Lnk use" ETV
vector 20 Network.node[3].lnk[0] "Buffer Size" ETV
vector 21 Network.node[2].lnk[1] "Lnk use" ETV
vector 22 Network.node[1].lnk[1] "Lnk use" ETV
vector 23 Network.node[1].lnk[0] "Lnk use" ETV
vector 24 Network.node[1].lnk[0] "Buffer Size" ETV
vector 25 Network.node[0].lnk[1] "Lnk use" ETV
vector 26 Network.node[5].app "Delay Source 2" ETV
vector 27 Network.node[5].app "HopCount Source 2" ETV
vector 28 Network.node[0].lnk[1] "Buffer Size" ETV
vector 29 Network.node[1].lnk[1] "Buffer Size" ETV
vector 30 Network.node[2].lnk[1] "Buffer Size" ETV
vector 31 Network.node[3].lnk[1] "Buffer Size" ETV
vector 32 Network.node[4].lnk[1] "Buffer Size" ETV
vector 33 Network.node[5].lnk[1] "Buffer Size" ETV
vector 34 Network.node[6].lnk[1] "Buffer Size" ETV
vector 35 Network.node[7].lnk[1] "Buffer Size" ETV
0	3	2.695681165452	1
0	17	5.057284585398	1
0	70	7.579012636224	1
0	114	9.232158096235	1
0	227	12.346635998227	1
0	283	13.40611341564	1
0	343	14.40611341564	1
0	408	16.32511115077	1
0	423	17.364750014115	1
0	470	21.031799503639	1
0	480	22.38138361509	1
0	514	23.289821843577	1
0	573	24.786437870625	1
0	579	24.899682173791	1
0	583	25.120738240186	1
0	600	26.355472228914	1
0	607	26.628955307287	1
0	648	29.762792832211	1
0	652	29.824069597408	1
0	689	30.21154566345	1
0	704	31.201814009174	1
0	787	35.574008653766	1
0	822	36.027701214761	1
0	842	40.652323795202	1
0	880	42.150377862496	1
0	952	46.966096533681	1
0	987	48.822884912561	1
0	1016	52.187989402628	1
0	1020	52.565612630942	1
0	1058	53.372492834532	1
0	1105	56.391295737613	1
0	1134	56.43678845758	1
0	1140	56.855484779113	1
0	1196	58.749292432982	1
0	1249	60.96277430825	1
0	1284	61.298612790148	1
0	1329	63.223696896241	1
0	1368	63.842306742332	1
0	1388	65.538746213074	1
0	1410	67.365993482623	1
0	1444	67.848177296204	1
0	1450	68.098138954833	1
0	1465	68.53397303671	1
0	1542	70.369181413041	1
0	1573	71.123507209265	1
0	1602	71.418115853907	1
0	1633	72.883787001831	1
0	1686	74.00215114137	1
0	1743	77.43756800547	1
0	1774	79.230806235925	1
0	1780	79.870527124474	1
0	1809	80.567361721079	1
0	1854	82.290958941303	1
0	1865	82.719010874964	1
0	1873	83.03269455229	1
0	1876	83.219040423689	1
0	1942	85.879282339674	1
0	2322	99.179492225148	1
0	2511	108.758332151309	1
0	2569	111.934560296591	1
0	2575	112.487674693435	1
0	2579	113.363916293237	1
0	2622	114.550307857468	1
0	2628	114.969110324487	1
0	2671	116.434132600441	1
0	2681	116.900453329295	1
0	2715	117.274963625878	1
0	2746	117.794345994316	1
0	2791	119.031849684083	1
0	2822	119.38271591346	1
0	2828	119.831045551507	1
0	2871	122.75222081806	1
0	2881	123.035262142956	1
0	2885	123.481398950712	1
0	2913	123.896888348183	1
0	2953	124.553530137705	1
0	2999	125.933572010926	1
0	3027	128.00130495053	1
0	3061	129.192380153561	1
0	3092	129.233373888854	1
0	3123	129.539808533429	1
0	3163	132.465114335898	1
0	3169	133.16229992368	1
0	3218	136.521743020942	1
0	3256	137.924571093751	1
0	3296	144.240534996128	1
0	3336	146.137544785315	1
0	3363	147.768837399695	1
0	3395	149.568678059618	1
0	3399	149.629248444056	1
0	3402	149.749177341231	1
0	3433	151.497812507832	1
0	3450	152.495043230723	1
0	3575	157.423326638827	1
0	3620	157.802492548103	1
0	3691	161.303113127749	1
0	3731	162.90776625502	1
0	3737	164.169753599259	1
0	3741	164.368645803706	1
0	3744	165.101832147951	1
0	3803	168.639400729147	1
0	3855	170.419501604276	1
0	3899	171.344746124569	1
0	3948	173.56702297591	1
0	3988	173.862973901165	1
0	3994	174.649122296669	1
0	4017	177.222809219892	1
0	4021	177.483120666911	1
0	4093	181.483887425041	1
0	4124	181.512089677033	1
0	4192	184.814627407306	1
0	4223	185.238619547988	1
0	4229	185.43088845294	1
0	4276	188.363961510526	1
0	4291	189.210689883267	1
0	4320	189.388924011604	1
0	4356	189.995975327306	1
0	4362	190.133243054554	1
0	4409	191.517575697076	1
0	4424	192.782630180432	1
0	4428	192.843567556819	1
0	4435	193.384324312773	1
0	4472	193.93196789648	1
0	4503	193.946087517957	1
0	4534	194.421112036649	1
0	4634	197.819014462566	1
0	4652	198.681547530012	1
0	4671	199.702587744718	1
1	3	2.695681165452	1
1	4	2.695681165452	0
1	17	5.057284585398	1
1	18	5.057284585398	0
1	70	7.579012636224	1
1	71	7.579012636224	0
1	114	9.232158096235	1
1	115	9.232158096235	0
1	227	12.346635998227	1
1	228	12.346635998227	0
1	283	13.40611341564	1
1	284	13.40611341564	0
1	343	14.40611341564	1
1	344	14.40611341564	0
1	423	17.364750014115	1
1	424	17.364750014115	0
1	480	22.38138361509	1
1	481	22.38138361509	0
1	579	24.899682173791	1
1	580	24.899682173791	0
1	583	25.120738240186	1
1	593	25.899682173791	0
1	600	26.355472228914	1
1	607	26.628955307287	2
1	608	26.899682173791	1
1	618	27.899682173791	0
1	648	29.762792832211	1
1	649	29.762792832211	0
1	652	29.824069597408	1
1	693	30.762792832211	0
1	704	31.201814009174	1
1	709	31.762792832211	0
1	842	40.652323795202	1
1	843	40.652323795202	0
1	1016	52.187989402628	1
1	1017	52.187989402628	0
1	1020	52.565612630942	1
1	1026	53.187989402628	0
1	1105	56.391295737613	1
1	1106	56.391295737613	0
1	1140	56.855484779113	1
1	1149	57.391295737613	0
1	1388	65.538746213074	1
1	1389	65.538746213074	0
1	1410	67.365993482623	1
1	1411	67.365993482623	0
1	1450	68.098138954833	1
1	1458	68.365993482623	0
1	1465	68.53397303671	1
1	1475	69.365993482623	0
1	1602	71.418115853907	1
1	1603	71.418115853907	0
1	1633	72.883787001831	1
1	1634	72.883787001831	0
1	1780	79.870527124474	1
1	1781	79.870527124474	0
1	1865	82.719010874964	1
1	1866	82.719010874964	0
1	1873	83.03269455229	1
1	1876	83.219040423689	2
1	1882	83.719010874964	1
1	1891	84.719010874964	0
1	2575	112.487674693435	1
1	2576	112.487674693435	0
1	2579	113.363916293237	1
1	2580	113.487674693435	0
1	2628	114.969110324487	1
1	2629	114.969110324487	0
1	2681	116.900453329295	1
1	2682	116.900453329295	0
1	2828	119.831045551507	1
1	2829	119.831045551507	0
1	2881	123.035262142956	1
1	2882	123.035262142956	0
1	2885	123.481398950712	1
1	2917	124.035262142956	0
1	3027	128.00130495053	1
1	3028	128.00130495053	0
1	3169	133.16229992368	1
1	3170	133.16229992368	0
1	3218	136.521743020942	1
1	3219	136.521743020942	0
1	3363	147.768837399695	1
1	3364	147.768837399695	0
1	3395	149.568678059618	1
1	3396	149.568678059618	0
1	3399	149.629248444056	1
1	3402	149.749177341231	2
1	3417	150.568678059618	1
1	3433	151.497812507832	2
1	3434	151.568678059618	1
1	3450	152.495043230723	2
1	3451	152.568678059618	1
1	3469	153.568678059618	0
1	3737	164.169753599259	1
1	3738	164.169753599259	0
1	3741	164.368645803706	1
1	3744	165.101832147951	2
1	3745	165.169753599259	1
1	3754	166.169753599259	0
1	3803	168.639400729147	1
1	3804	168.639400729147	0
1	3994	174.649122296669	1
1	3995	174.649122296669	0
1	4017	177.222809219892	1
1	4018	177.222809219892	0
1	4021	177.483120666911	1
1	4026	178.222809219892	0
1	4229	185.43088845294	1
1	4230	185.43088845294	0
1	4291	189.210689883267	1
1	4292	189.210689883267	0
1	4362	190.133243054554	1
1	4363	190.210689883267	0
1	4424	192.782630180432	1
1	4425	192.782630180432	0
1	4428	192.843567556819	1
1	4435	193.384324312773	2
1	4440	193.782630180432	1
1	4543	194.782630180432	0
1	4652	198.681547530012	1
1	4653	198.681547530012	0
1	4671	199.702587744718	1
1	4672	199.702587744718	0
2	6	3.695781165452	1
2	45	6.057384585398	1
2	85	8.579112636224	1
2	125	10.232258096235	1
2	271	13.346735998227	1
2	345	14.40621341564	1
2	368	15.40621341564	1
2	402	16.32401115077	1
2	430	18.364850014115	1
2	464	21.030699503639	1
2	508	23.288721843577	1
2	519	23.38148361509	1
2	567	24.785337870625	1
2	594	25.899782173791	1
2	609	26.899782173791	1
2	619	27.899782173791	1
2	633	28.899782173791	1
2	683	30.21044566345	1
2	694	30.762892832211	1
2	710	31.762892832211	1
2	725	32.762892832211	1
2	781	35.572908653766	1
2	816	36.026601214761	1
2	845	41.652423795202	1
2	874	42.149277862496	1
2	946	46.964996533681	1
2	981	48.821784912561	1
2	1027	53.188089402628	1
2	1052	53.371392834532	1
2	1067	54.188089402628	1
2	1128	56.43568845758	1
2	1150	57.391395737613	1
2	1160	58.391395737613	1
2	1190	58.748192432982	1
2	1243	60.96167430825	1
2	1278	61.297512790148	1
2	1323	63.222596896241	1
2	1362	63.841206742332	1
2	1400	66.538846213074	1
2	1438	67.847077296204	1
2	1459	68.366093482623	1
2	1476	69.366093482623	1
2	1507	70.366093482623	1
2	1536	70.368081413041	1
2	1567	71.122407209265	1
2	1623	72.418215853907	1
2	1655	73.883887001831	1
2	1680	74.00105114137	1
2	1737	77.43646800547	1
2	1768	79.229706235925	1
2	1803	80.566261721079	1
2	1814	80.870627124474	1
2	1848	82.289858941303	1
2	1883	83.719110874964	1
2	1892	84.719110874964	1
2	1902	85.719110874964	1
2	1936	85.878182339674	1
2	2316	99.178392225148	1
2	2505	108.757232151309	1
2	2563	111.933460296591	1
2	2581	113.487774693435	1
2	2586	114.487774693435	1
2	2616	114.549207857468	1
2	2640	115.969210324487	1
2	2665	116.433032600441	1
2	2709	117.273863625878	1
2	2740	117.793245994316	1
2	2751	117.900553329295	1
2	2785	119.030749684083	1
2	2816	119.38161591346	1
2	2835	120.831145551507	1
2	2865	122.75112081806	1
2	2907	123.895788348183	1
2	2918	124.035362142956	1
2	2947	124.552430137705	1
2	2958	125.035362142956	1
2	2993	125.932472010926	1
2	3030	129.00140495053	1
2	3055	129.191280153561	1
2	3086	129.232273888854	1
2	3117	129.538708533429	1
2	3157	132.464014335898	1
2	3179	134.16239992368	1
2	3225	137.521843020942	1
2	3250	137.923471093751	1
2	3290	144.239434996128	1
2	3330	146.136444785315	1
2	3376	148.768937399695	1
2	3418	150.568778059618	1
2	3435	151.568778059618	1
2	3452	152.568778059618	1
2	3470	153.568778059618	1
2	3492	154.568778059618	1
2	3569	157.422226638827	1
2	3614	157.801392548103	1
2	3685	161.302013127749	1
2	3725	162.90666625502	1
2	3746	165.169853599259	1
2	3755	166.169853599259	1
2	3770	167.169853599259	1
2	3819	169.639500729147	1
2	3849	170.418401604276	1
2	3893	171.343646124569	1
2	3942	173.56592297591	1
2	3982	173.861873901165	1
2	4002	175.649222296669	1
2	4027	178.222909219892	1
2	4032	179.222909219892	1
2	4087	181.482787425041	1
2	4118	181.510989677033	1
2	4186	184.813527407306	1
2	4217	185.237519547988	1
2	4236	186.43098845294	1
2	4270	188.362861510526	1
2	4314	189.387824011604	1
2	4350	189.994875327306	1
2	4364	190.210789883267	1
2	4373	191.210789883267	1
2	4403	191.516475697076	1
2	4441	193.782730180432	1
2	4466	193.93086789648	1
2	4497	193.944987517957	1
2	4528	194.420012036649	1
2	4544	194.782730180432	1
2	4563	195.782730180432	1
2	4628	197.817914462566	1
2	4665	199.681647530012	1
3	8	3.695781165452	1
3	47	6.057384585398	1
3	87	8.579112636224	1
3	127	10.232258096235	1
3	273	13.346735998227	1
3	347	14.40621341564	1
3	371	15.40621341564	1
3	398	16.32401115077	1
3	432	18.364850014115	1
3	460	21.030699503639	1
3	504	23.288721843577	1
3	521	23.38148361509	1
3	563	24.785337870625	1
3	596	25.899782173791	1
3	612	26.899782173791	1
3	622	27.899782173791	1
3	636	28.899782173791	1
3	679	30.21044566345	1
3	696	30.762892832211	1
3	713	31.762892832211	1
3	728	32.762892832211	1
3	777	35.572908653766	1
3	812	36.026601214761	1
3	847	41.652423795202	1
3	870	42.149277862496	1
3	942	46.964996533681	1
3	977	48.821784912561	1
3	1029	53.188089402628	1
3	1048	53.371392834532	1
3	1070	54.188089402628	1
3	1124	56.43568845758	1
3	1152	57.391395737613	1
3	1163	58.391395737613	1
3	1186	58.748192432982	1
3	1239	60.96167430825	1
3	1274	61.297512790148	1
3	1319	63.222596896241	1
3	1358	63.841206742332	1
3	1402	66.538846213074	1
3	1434	67.847077296204	1
3	1461	68.366093482623	1
3	1479	69.366093482623	1
3	1510	70.366093482623	1
3	1532	70.368081413041	1
3	1563	71.122407209265	1
3	1625	72.418215853907	1
3	1657	73.883887001831	1
3	1676	74.00105114137	1
3	1733	77.43646800547	1
3	1764	79.229706235925	1
3	1799	80.566261721079	1
3	1816	80.870627124474	1
3	1844	82.289858941303	1
3	1885	83.719110874964	1
3	1895	84.719110874964	1
3	1905	85.719110874964	1
3	1932	85.878182339674	1
3	2312	99.178392225148	1
3	2501	108.757232151309	1
3	2559	111.933460296591	1
3	2583	113.487774693435	1
3	2589	114.487774693435	1
3	2612	114.549207857468	1
3	2642	115.969210324487	1
3	2661	116.433032600441	1
3	2705	117.273863625878	1
3	2736	117.793245994316	1
3	2753	117.900553329295	1
3	2781	119.030749684083	1
3	2812	119.38161591346	1
3	2837	120.831145551507	1
3	2861	122.75112081806	1
3	2903	123.895788348183	1
3	2920	124.035362142956	1
3	2943	124.552430137705	1
3	2961	125.035362142956	1
3	2989	125.932472010926	1
3	3032	129.00140495053	1
3	3051	129.191280153561	1
3	3082	129.232273888854	1
3	3113	129.538708533429	1
3	3153	132.464014335898	1
3	3181	134.16239992368	1
3	3227	137.521843020942	1
3	3246	137.923471093751	1
3	3286	144.239434996128	1
3	3326	146.136444785315	1
3	3378	148.768937399695	1
3	3420	150.568778059618	1
3	3438	151.568778059618	1
3	3455	152.568778059618	1
3	3473	153.568778059618	1
3	3495	154.568778059618	1
3	3565	157.422226638827	1
3	3610	157.801392548103	1
3	3681	161.302013127749	1
3	3721	162.90666625502	1
3	3748	165.169853599259	1
3	3758	166.169853599259	1
3	3773	167.169853599259	1
3	3821	169.639500729147	1
3	3845	170.418401604276	1
3	3889	171.343646124569	1
3	3938	173.56592297591	1
3	3978	173.861873901165	1
3	4004	175.649222296669	1
3	4029	178.222909219892	1
3	4035	179.222909219892	1
3	4083	181.482787425041	1
3	4114	181.510989677033	1
3	4182	184.813527407306	1
3	4213	185.237519547988	1
3	4238	186.43098845294	1
3	4266	188.362861510526	1
3	4310	189.387824011604	1
3	4346	189.994875327306	1
3	4366	190.210789883267	1
3	4376	191.210789883267	1
3	4399	191.516475697076	1
3	4443	193.782730180432	1
3	4462	193.93086789648	1
3	4493	193.944987517957	1
3	4524	194.420012036649	1
3	4547	194.782730180432	1
3	4566	195.782730180432	1
3	4624	197.817914462566	1
3	4667	199.681647530012	1
4	8	3.695781165452	1
4	9	3.695781165452	0
4	47	6.057384585398	1
4	48	6.057384585398	0
4	87	8.579112636224	1
4	88	8.579112636224	0
4	127	10.232258096235	1
4	128	10.232258096235	0
4	273	13.346735998227	1
4	274	13.346735998227	0
4	347	14.40621341564	1
4	348	14.40621341564	0
4	371	15.40621341564	1
4	372	15.40621341564	0
4	432	18.364850014115	1
4	433	18.364850014115	0
4	521	23.38148361509	1
4	522	23.38148361509	0
4	596	25.899782173791	1
4	597	25.899782173791	0
4	612	26.899782173791	1
4	613	26.899782173791	0
4	622	27.899782173791	1
4	623	27.899782173791	0
4	636	28.899782173791	1
4	637	28.899782173791	0
4	696	30.762892832211	1
4	697	30.762892832211	0
4	713	31.762892832211	1
4	714	31.762892832211	0
4	728	32.762892832211	1
4	729	32.762892832211	0
4	847	41.652423795202	1
4	848	41.652423795202	0
4	1029	53.188089402628	1
4	1030	53.188089402628	0
4	1070	54.188089402628	1
4	1071	54.188089402628	0
4	1152	57.391395737613	1
4	1153	57.391395737613	0
4	1163	58.391395737613	1
4	1164	58.391395737613	0
4	1402	66.538846213074	1
4	1403	66.538846213074	0
4	1461	68.366093482623	1
4	1462	68.366093482623	0
4	1479	69.366093482623	1
4	1480	69.366093482623	0
4	1510	70.366093482623	1
4	1511	70.366093482623	0
4	1625	72.418215853907	1
4	1626	72.418215853907	0
4	1657	73.883887001831	1
4	1658	73.883887001831	0
4	1816	80.870627124474	1
4	1817	80.870627124474	0
4	1885	83.719110874964	1
4	1886	83.719110874964	0
4	1895	84.719110874964	1
4	1896	84.719110874964	0
4	1905	85.719110874964	1
4	1906	85.719110874964	0
4	2583	113.487774693435	1
4	2584	113.487774693435	0
4	2589	114.487774693435	1
4	2590	114.487774693435	0
4	2642	115.969210324487	1
4	2643	115.969210324487	0
4	2753	117.900553329295	1
4	2754	117.900553329295	0
4	2837	120.831145551507	1
4	2838	120.831145551507	0
4	2920	124.035362142956	1
4	2921	124.035362142956	0
4	2961	125.035362142956	1
4	2962	125.035362142956	0
4	3032	129.00140495053	1
4	3033	129.00140495053	0
4	3181	134.16239992368	1
4	3182	134.16239992368	0
4	3227	137.521843020942	1
4	3228	137.521843020942	0
4	3378	148.768937399695	1
4	3379	148.768937399695	0
4	3420	150.568778059618	1
4	3421	150.568778059618	0
4	3438	151.568778059618	1
4	3439	151.568778059618	0
4	3455	152.568778059618	1
4	3456	152.568778059618	0
4	3473	153.568778059618	1
4	3474	153.568778059618	0
4	3495	154.568778059618	1
4	3496	154.568778059618	0
4	3748	165.169853599259	1
4	3749	165.169853599259	0
4	3758	166.169853599259	1
4	3759	166.169853599259	0
4	3773	167.169853599259	1
4	3774	167.169853599259	0
4	3821	169.639500729147	1
4	3822	169.639500729147	0
4	4004	175.649222296669	1
4	4005	175.649222296669	0
4	4029	178.222909219892	1
4	4030	178.222909219892	0
4	4035	179.222909219892	1
4	4036	179.222909219892	0
4	4238	186.43098845294	1
4	4239	186.43098845294	0
4	4366	190.210789883267	1
4	4367	190.210789883267	0
4	4376	191.210789883267	1
4	4377	191.210789883267	0
4	4443	193.782730180432	1
4	4444	193.782730180432	0
4	4547	194.782730180432	1
4	4548	194.782730180432	0
4	4566	195.782730180432	1
4	4567	195.782730180432	0
4	4667	199.681647530012	1
4	4668	199.681647530012	0
5	11	4.695881165452	1
5	59	7.057484585398	1
5	120	9.579212636224	1
5	168	11.232358096235	1
5	299	14.346835998227	1
5	373	15.40631341564	1
5	392	16.32291115077	1
5	413	16.40631341564	1
5	435	19.364950014115	1
5	454	21.029599503639	1
5	498	23.287621843577	1
5	533	24.38158361509	1
5	557	24.784237870625	1
5	614	26.899882173791	1
5	624	27.899882173791	1
5	638	28.899882173791	1
5	654	29.899882173791	1
5	673	30.20934566345	1
5	715	31.762992832211	1
5	730	32.762992832211	1
5	744	33.762992832211	1
5	771	35.571808653766	1
5	806	36.025501214761	1
5	864	42.148177862496	1
5	885	42.652523795202	1
5	936	46.963896533681	1
5	971	48.820684912561	1
5	1042	53.370292834532	1
5	1072	54.188189402628	1
5	1081	55.188189402628	1
5	1118	56.43458845758	1
5	1165	58.391495737613	1
5	1180	58.747092432982	1
5	1206	59.391495737613	1
5	1233	60.96057430825	1
5	1268	61.296412790148	1
5	1313	63.221496896241	1
5	1352	63.840106742332	1
5	1413	67.538946213074	1
5	1428	67.845977296204	1
5	1481	69.366193482623	1
5	1512	70.366193482623	1
5	1526	70.366981413041	1
5	1557	71.121307209265	1
5	1592	71.366193482623	1
5	1645	73.418315853907	1
5	1670	73.99995114137	1
5	1704	74.883987001831	1
5	1727	77.43536800547	1
5	1758	79.228606235925	1
5	1793	80.565161721079	1
5	1823	81.870727124474	1
5	1838	82.288758941303	1
5	1897	84.719210874964	1
5	1907	85.719210874964	1
5	1926	85.877082339674	1
5	1947	86.719210874964	1
5	2306	99.177292225148	1
5	2495	108.756132151309	1
5	2553	111.932360296591	1
5	2591	114.487874693435	1
5	2606	114.548107857468	1
5	2631	115.487874693435	1
5	2655	116.431932600441	1
5	2684	116.969310324487	1
5	2699	117.272763625878	1
5	2730	117.792145994316	1
5	2760	118.900653329295	1
5	2775	119.029649684083	1
5	2806	119.38051591346	1
5	2840	121.831245551507	1
5	2855	122.75002081806	1
5	2897	123.894688348183	1
5	2937	124.551330137705	1
5	2963	125.035462142956	1
5	2983	125.931372010926	1
5	3004	126.035462142956	1
5	3045	129.190180153561	1
5	3076	129.231173888854	1
5	3107	129.537608533429	1
5	3128	130.00150495053	1
5	3147	132.462914335898	1
5	3189	135.16249992368	1
5	3240	137.922371093751	1
5	3261	138.521943020942	1
5	3280	144.238334996128	1
5	3320	146.135344785315	1
5	3404	149.769037399695	1
5	3440	151.568878059618	1
5	3457	152.568878059618	1
5	3475	153.568878059618	1
5	3497	154.568878059618	1
5	3519	155.568878059618	1
5	3559	157.421126638827	1
5	3604	157.800292548103	1
5	3675	161.300913127749	1
5	3715	162.90556625502	1
5	3760	166.169953599259	1
5	3775	167.169953599259	1
5	3789	168.169953599259	1
5	3839	170.417301604276	1
5	3860	170.639600729147	1
5	3883	171.342546124569	1
5	3932	173.56482297591	1
5	3972	173.860773901165	1
5	4011	176.649322296669	1
5	4037	179.223009219892	1
5	4042	180.223009219892	1
5	4077	181.481687425041	1
5	4108	181.509889677033	1
5	4176	184.812427407306	1
5	4207	185.236419547988	1
5	4241	187.43108845294	1
5	4260	188.361761510526	1
5	4304	189.386724011604	1
5	4340	189.993775327306	1
5	4378	191.210889883267	1
5	4393	191.515375697076	1
5	4414	192.210889883267	1
5	4456	193.92976789648	1
5	4487	193.943887517957	1
5	4518	194.418912036649	1
5	4549	194.782830180432	1
5	4568	195.782830180432	1
5	4586	196.782830180432	1
5	4618	197.816814462566	1
6	13	4.695881165452	1
6	61	7.057484585398	1
6	122	9.579212636224	1
6	170	11.232358096235	1
6	301	14.346835998227	1
6	375	15.40631341564	1
6	388	16.32291115077	1
6	416	16.40631341564	1
6	437	19.364950014115	1
6	450	21.029599503639	1
6	494	23.287621843577	1
6	535	24.38158361509	1
6	553	24.784237870625	1
6	616	26.899882173791	1
6	627	27.899882173791	1
6	641	28.899882173791	1
6	657	29.899882173791	1
6	669	30.20934566345	1
6	717	31.762992832211	1
6	733	32.762992832211	1
6	747	33.762992832211	1
6	767	35.571808653766	1
6	802	36.025501214761	1
6	860	42.148177862496	1
6	887	42.652523795202	1
6	932	46.963896533681	1
6	967	48.820684912561	1
6	1038	53.370292834532	1
6	1074	54.188189402628	1
6	1084	55.188189402628	1
6	1114	56.43458845758	1
6	1167	58.391495737613	1
6	1176	58.747092432982	1
6	1209	59.391495737613	1
6	1229	60.96057430825	1
6	1264	61.296412790148	1
6	1309	63.221496896241	1
6	1348	63.840106742332	1
6	1415	67.538946213074	1
6	1424	67.845977296204	1
6	1483	69.366193482623	1
6	1515	70.366193482623	1
6	1522	70.366981413041	1
6	1553	71.121307209265	1
6	1595	71.366193482623	1
6	1647	73.418315853907	1
6	1666	73.99995114137	1
6	1706	74.883987001831	1
6	1723	77.43536800547	1
6	1754	79.228606235925	1
6	1789	80.565161721079	1
6	1825	81.870727124474	1
6	1834	82.288758941303	1
6	1899	84.719210874964	1
6	1910	85.719210874964	1
6	1922	85.877082339674	1
6	1950	86.719210874964	1
6	2302	99.177292225148	1
6	2491	108.756132151309	1
6	2549	111.932360296591	1
6	2593	114.487874693435	1
6	2602	114.548107857468	1
6	2634	115.487874693435	1
6	2651	116.431932600441	1
6	2686	116.969310324487	1
6	2695	117.272763625878	1
6	2726	117.792145994316	1
6	2762	118.900653329295	1
6	2771	119.029649684083	1
6	2802	119.38051591346	1
6	2842	121.831245551507	1
6	2851	122.75002081806	1
6	2893	123.894688348183	1
6	2933	124.551330137705	1
6	2965	125.035462142956	1
6	2979	125.931372010926	1
6	3007	126.035462142956	1
6	3041	129.190180153561	1
6	3072	129.231173888854	1
6	3103	129.537608533429	1
6	3130	130.00150495053	1
6	3143	132.462914335898	1
6	3191	135.16249992368	1
6	3236	137.922371093751	1
6	3263	138.521943020942	1
6	3276	144.238334996128	1
6	3316	146.135344785315	1
6	3406	149.769037399695	1
6	3442	151.568878059618	1
6	3460	152.568878059618	1
6	3478	153.568878059618	1
6	3500	154.568878059618	1
6	3522	155.568878059618	1
6	3555	157.421126638827	1
6	3600	157.800292548103	1
6	3671	161.300913127749	1
6	3711	162.90556625502	1
6	3762	166.169953599259	1
6	3778	167.169953599259	1
6	3792	168.169953599259	1
6	3835	170.417301604276	1
6	3862	170.639600729147	1
6	3879	171.342546124569	1
6	3928	173.56482297591	1
6	3968	173.860773901165	1
6	4013	176.649322296669	1
6	4039	179.223009219892	1
6	4045	180.223009219892	1
6	4073	181.481687425041	1
6	4104	181.509889677033	1
6	4172	184.812427407306	1
6	4203	185.236419547988	1
6	4243	187.43108845294	1
6	4256	188.361761510526	1
6	4300	189.386724011604	1
6	4336	189.993775327306	1
6	4380	191.210889883267	1
6	4389	191.515375697076	1
6	4417	192.210889883267	1
6	4452	193.92976789648	1
6	4483	193.943887517957	1
6	4514	194.418912036649	1
6	4551	194.782830180432	1
6	4571	195.782830180432	1
6	4589	196.782830180432	1
6	4614	197.816814462566	1
7	13	4.695881165452	1
7	14	4.695881165452	0
7	61	7.057484585398	1
7	62	7.057484585398	0
7	122	9.579212636224	1
7	123	9.579212636224	0
7	170	11.232358096235	1
7	171	11.232358096235	0
7	301	14.346835998227	1
7	302	14.346835998227	0
7	375	15.40631341564	1
7	376	15.40631341564	0
7	416	16.40631341564	1
7	417	16.40631341564	0
7	437	19.364950014115	1
7	438	19.364950014115	0
7	535	24.38158361509	1
7	536	24.38158361509	0
7	616	26.899882173791	1
7	617	26.899882173791	0
7	627	27.899882173791	1
7	628	27.899882173791	0
7	641	28.899882173791	1
7	642	28.899882173791	0
7	657	29.899882173791	1
7	658	29.899882173791	0
7	717	31.762992832211	1
7	718	31.762992832211	0
7	733	32.762992832211	1
7	734	32.762992832211	0
7	747	33.762992832211	1
7	748	33.762992832211	0
7	887	42.652523795202	1
7	888	42.652523795202	0
7	1074	54.188189402628	1
7	1075	54.188189402628	0
7	1084	55.188189402628	1
7	1085	55.188189402628	0
7	1167	58.391495737613	1
7	1168	58.391495737613	0
7	1209	59.391495737613	1
7	1210	59.391495737613	0
7	1415	67.538946213074	1
7	1416	67.538946213074	0
7	1483	69.366193482623	1
7	1484	69.366193482623	0
7	1515	70.366193482623	1
7	1516	70.366193482623	0
7	1595	71.366193482623	1
7	1596	71.366193482623	0
7	1647	73.418315853907	1
7	1648	73.418315853907	0
7	1706	74.883987001831	1
7	1707	74.883987001831	0
7	1825	81.870727124474	1
7	1826	81.870727124474	0
7	1899	84.719210874964	1
7	1900	84.719210874964	0
7	1910	85.719210874964	1
7	1911	85.719210874964	0
7	1950	86.719210874964	1
7	1951	86.719210874964	0
7	2593	114.487874693435	1
7	2594	114.487874693435	0
7	2634	115.487874693435	1
7	2635	115.487874693435	0
7	2686	116.969310324487	1
7	2687	116.969310324487	0
7	2762	118.900653329295	1
7	2763	118.900653329295	0
7	2842	121.831245551507	1
7	2843	121.831245551507	0
7	2965	125.035462142956	1
7	2966	125.035462142956	0
7	3007	126.035462142956	1
7	3008	126.035462142956	0
7	3130	130.00150495053	1
7	3131	130.00150495053	0
7	3191	135.16249992368	1
7	3192	135.16249992368	0
7	3263	138.521943020942	1
7	3264	138.521943020942	0
7	3406	149.769037399695	1
7	3407	149.769037399695	0
7	3442	151.568878059618	1
7	3443	151.568878059618	0
7	3460	152.568878059618	1
7	3461	152.568878059618	0
7	3478	153.568878059618	1
7	3479	153.568878059618	0
7	3500	154.568878059618	1
7	3501	154.568878059618	0
7	3522	155.568878059618	1
7	3523	155.568878059618	0
7	3762	166.169953599259	1
7	3763	166.169953599259	0
7	3778	167.169953599259	1
7	3779	167.169953599259	0
7	3792	168.169953599259	1
7	3793	168.169953599259	0
7	3862	170.639600729147	1
7	3863	170.639600729147	0
7	4013	176.649322296669	1
7	4014	176.649322296669	0
7	4039	179.223009219892	1
7	4040	179.223009219892	0
7	4045	180.223009219892	1
7	4046	180.223009219892	0
7	4243	187.43108845294	1
7	4244	187.43108845294	0
7	4380	191.210889883267	1
7	4381	191.210889883267	0
7	4417	192.210889883267	1
7	4418	192.210889883267	0
7	4551	194.782830180432	1
7	4552	194.782830180432	0
7	4571	195.782830180432	1
7	4572	195.782830180432	0
7	4589	196.782830180432	1
7	4590	196.782830180432	0
8	21	5.578812636224	1
8	43	5.857936007653	1
8	65	7.231958096235	1
8	105	8.788955286833	1
8	145	10.244339777998	1
8	157	10.346435998227	1
8	179	11.40591341564	1
8	183	11.581067422919	1
8	216	11.970897368647	1
8	235	12.694376748006	1
8	266	12.925965791172	1
8	330	14.376772106017	1
8	1990	89.176019742327	1
8	2051	92.507812079389	1
8	2116	93.838024165251	1
8	2167	95.719881477053	1
8	2216	96.646208844565	1
8	2235	96.856767369901	1
8	2269	98.213073550575	1
8	2327	99.392411222487	1
8	2370	101.124384154907	1
9	21	5.578812636224	1
9	22	5.578812636224	0
9	43	5.857936007653	1
9	49	6.578812636224	0
9	65	7.231958096235	1
9	66	7.231958096235	0
9	105	8.788955286833	1
9	106	8.788955286833	0
9	145	10.244339777998	1
9	146	10.244339777998	0
9	157	10.346435998227	1
9	158	10.346435998227	0
9	179	11.40591341564	1
9	180	11.40591341564	0
9	183	11.581067422919	1
9	216	11.970897368647	2
9	229	12.40591341564	1
9	266	12.925965791172	2
9	275	13.40591341564	1
9	285	13.40691341564	0
9	330	14.376772106017	1
9	331	14.376772106017	0
9	1990	89.176019742327	1
9	1991	89.176019742327	0
9	2051	92.507812079389	1
9	2052	92.507812079389	0
9	2116	93.838024165251	1
9	2117	93.838024165251	0
9	2216	96.646208844565	1
9	2217	96.646208844565	0
10	24	5.695981165452	1
10	76	8.057584585398	1
10	160	10.579312636224	1
10	221	12.232458096235	1
10	364	15.346935998227	1
10	382	16.32181115077	1
10	418	16.40641341564	1
10	426	17.40641341564	1
10	440	20.365050014115	1
10	444	21.028499503639	1
10	488	23.286521843577	1
10	547	24.783137870625	1
10	585	25.38168361509	1
10	629	27.899982173791	1
10	643	28.899982173791	1
10	659	29.899982173791	1
10	663	30.20824566345	1
10	699	30.899982173791	1
10	735	32.763092832211	1
10	749	33.763092832211	1
10	757	34.763092832211	1
10	761	35.570708653766	1
10	796	36.024401214761	1
10	854	42.147077862496	1
10	895	43.652623795202	1
10	926	46.962796533681	1
10	961	48.819584912561	1
10	1032	53.369192834532	1
10	1086	55.188289402628	1
10	1095	56.188289402628	1
10	1108	56.43348845758	1
10	1170	58.745992432982	1
10	1211	59.391595737613	1
10	1219	60.391595737613	1
10	1223	60.95947430825	1
10	1258	61.295312790148	1
10	1303	63.220396896241	1
10	1342	63.839006742332	1
10	1418	67.844877296204	1
10	1467	68.539046213074	1
10	1502	70.365881413041	1
10	1517	70.366293482623	1
10	1547	71.120207209265	1
10	1597	71.366293482623	1
10	1619	72.366293482623	1
10	1660	73.99885114137	1
10	1695	74.418415853907	1
10	1713	75.884087001831	1
10	1717	77.43426800547	1