version 3
run General-0-20250427-20:14:33-152650
attr configname General
attr datetime 20250427-20:14:33
attr datetimef 20250427-201433
attr experiment General
attr inifile omnetpp.ini
attr iterationvars ""
attr iterationvarsd ""
attr iterationvarsf ""
attr measurement ""
attr network Network
attr processid 152650
attr repetition 0
attr replication #0
attr resultdir results
attr runnumber 0
attr seedset 0
config network Network
config sim-time-limit 200s
config Network.nodeTx.gen.generationInterval exponential(1)
config Network.nodeTx.gen.packetByteSize 12500
config Network.queue.bufferSize 200
config Network.nodeRx.queue.bufferSize 200
config Network.nodeTx.queue.bufferSize 2000000

vector 0 Network.nodeTx.queue BufferSize ETV
vector 1 Network.queue BufferSize ETV
vector 2 Network.nodeRx.queue BufferSize ETV
vector 3 Network.nodeRx.sink Delay ETV
0	2	0.795874504566	1
0	13	1.69443489305	1
0	24	2.950365651097	1
0	35	4.809969863172	1
0	46	5.733192994643	1
0	57	7.684738330527	1
0	68	8.471939470509	1
0	79	10.350903524712	1
0	90	10.901952011382	1
0	101	11.878958437775	1
0	112	12.917117738439	1
0	123	13.402245902161	1
0	134	13.977765099044	1
0	143	14.330924238182	1
0	156	16.554448660218	1
0	159	16.612833329311	1
0	176	19.927745609239	1
0	185	20.246101750081	1
0	198	20.729703855029	1
0	209	21.37915020328	1
0	220	22.948046320903	1
0	231	24.620257521228	1
0	242	25.372931634541	1
0	253	26.026814201762	1
0	264	26.866247054662	1
0	275	27.365119063678	1
0	286	29.963373149527	1
0	297	31.771742413802	1
0	300	31.845427769267	1
0	312	32.25700576551	1
0	318	32.348166791634	1
0	337	33.392779299942	1
0	340	33.413204888341	1
0	352	33.872453025596	1
0	368	35.659940689035	1
0	379	38.810110617711	1
0	390	40.315894876348	1
0	396	40.467125730013	1
0	411	42.507439987955	1
0	422	44.548332203867	1
0	433	48.393554073009	1
0	444	49.035263245687	1
0	455	50.640502802749	1
0	466	52.254504877642	1
0	477	52.873434337269	1
0	488	53.608398758459	1
0	499	55.124934732449	1
0	510	56.260873674159	1
0	516	56.386748083597	1
0	531	57.661975785821	1
0	542	58.68340766017	1
0	553	59.555728855212	1
0	559	59.710458535712	1
0	574	60.481293194179	1
0	585	63.375713672166	1
0	596	64.79707835226	1
0	607	65.534905644016	1
0	613	65.646851804649	1
0	628	66.182417524877	1
0	639	66.824112226908	1
0	648	67.131392579061	1
0	656	67.337595861091	1
0	672	68.825850686843	1
0	683	70.161140871467	1
0	694	70.77022329465	1
0	700	71.014271785387	1
0	716	71.854606490999	1
0	722	71.999884518291	1
0	725	72.018853087492	1
0	739	72.410623898169	1
0	756	73.372004837235	1
0	762	73.534141326681	1
0	777	74.481138003856	1
0	783	74.732579935931	1
0	799	75.692127913299	1
0	810	76.180684962607	1
0	821	79.058599983885	1
0	832	81.387513358099	1
0	843	82.532652312799	1
0	854	83.130398389617	1
0	865	83.575916884668	1
0	876	84.525411468165	1
0	887	85.099943874906	1
0	898	87.4262949366	1
0	909	88.622402736057	1
0	915	88.726963961832	1
0	918	88.789079252298	1
0	939	92.289292936753	1
0	950	93.388205404304	1
0	961	94.447039535792	1
0	972	95.557636981479	1
0	978	95.745063047497	1
0	988	95.98126975358	1
0	1004	96.424673782201	1
0	1010	96.562702470629	1
0	1025	97.95174516042	1
0	1034	98.330707124703	1
0	1047	99.266768684474	1
0	1058	99.718870744699	1
0	1067	100.111983302003	1
0	1080	100.956411095531	1
0	1083	100.995594251944	1
0	1100	101.572918562751	1
0	1111	102.578789567918	1
0	1122	107.033286414094	1
0	1133	110.226233056148	1
0	1139	110.333868164304	1
0	1154	111.391694577656	1
0	1160	111.625996096432	1
0	1176	112.634015341852	1
0	1182	112.809928887278	1
0	1197	118.170029237521	1
0	1208	119.228771952615	1
0	1219	120.100687806241	1
0	1225	120.392768339508	1
0	1241	120.927833016591	1
0	1252	121.555774597582	1
0	1263	122.199555599185	1
0	1269	122.479832607664	1
0	1285	123.456696681735	1
0	1291	123.629824137881	1
0	1304	124.042325367803	1
0	1312	124.159280777595	1
0	1327	125.282449079128	1
0	1338	126.350521276278	1
0	1347	126.732077119652	1
0	1355	126.880789388904	1
0	1370	128.387424722177	1
0	1376	128.606305318684	1
0	1392	131.593495210536	1
0	1403	132.053509168276	1
0	1414	133.139778549154	1
0	1425	134.860110206871	1
0	1428	134.873774785302	1
0	1433	134.975919666827	1
0	1454	135.951021600983	1
0	1465	137.770840520267	1
0	1476	138.890654886021	1
0	1482	138.99168966133	1
0	1497	142.565278033674	1
0	1508	146.314309493258	1
0	1519	148.41963079405	1
0	1530	149.051967390446	1
0	1541	149.764550983779	1
0	1552	153.526478268283	1
0	1555	153.583805194707	1
0	1572	154.512283691608	1
0	1583	155.112230578249	1
0	1594	156.456475850401	1
0	1597	156.476665978547	1
0	1599	156.516642277605	2
0	1618	157.099520666472	1
0	1632	157.431930907436	1
0	1645	161.323501030281	1
0	1651	161.451557795592	1
0	1664	161.896977257512	1
0	1675	162.248153346893	1
0	1688	162.903799631257	1
0	1694	163.030188267682	1
0	1709	164.197061794231	1
0	1718	164.579762743093	1
0	1731	166.703999940095	1
0	1742	167.238884315852	1
0	1753	169.742796098937	1
0	1756	169.809093500419	1
0	1766	170.053488948501	1
0	1783	171.232678475566	1
0	1794	172.065521991632	1
0	1805	172.901619523602	1
0	1816	174.904860046109	1
0	1825	175.213274886207	1
0	1838	175.924522823424	1
0	1849	176.665281773871	1
0	1860	179.150864130848	1
0	1863	179.249514439266	1
0	1880	181.789818947225	1
0	1891	182.647714588299	1
0	1894	182.734485070639	1
0	1911	185.383740999315	1
0	1920	185.709081414844	1
0	1931	186.092641628943	1
0	1934	186.102042379607	1
0	1953	187.202888289698	1
0	1964	189.0502159407	1
0	1970	189.191546654261	1
0	1985	190.23332730844	1
0	1996	191.493261118549	1
0	2007	193.334543590036	1
0	2016	193.676197757062	1
0	2027	193.983715480824	1
0	2035	194.186065919391	1
0	2051	194.693266042648	1
0	2062	195.576395084607	1
0	2073	196.381192484408	1
0	2076	196.401504943204	1
0	2083	196.581757195189	1
0	2103	198.347498267602	1
0	2114	198.809229163646	1
0	2117	198.813935704138	1
0	2122	198.972277210369	1
1	5	0.895974504566	1
1	16	1.79453489305	1
1	27	3.050465651097	1
1	38	4.910069863172	1
1	49	5.833292994643	1
1	60	7.784838330527	1
1	71	8.572039470509	1
1	82	10.451003524712	1
1	93	11.002052011382	1
1	104	11.979058437775	1
1	115	13.017217738439	1
1	126	13.502345902161	1
1	137	14.077865099044	1
1	148	14.431024238182	1
1	161	16.654548660218	1
1	164	16.754548660218	1
1	179	20.027845609239	1
1	190	20.346201750081	1
1	201	20.829803855029	1
1	212	21.47925020328	1
1	223	23.048146320903	1
1	234	24.720357521228	1
1	245	25.473031634541	1
1	256	26.126914201762	1
1	267	26.966347054662	1
1	278	27.465219063678	1
1	289	30.063473149527	1
1	302	31.871842413802	1
1	305	31.971842413802	1
1	320	32.35710576551	1
1	325	32.45710576551	1
1	342	33.492879299942	1
1	345	33.592879299942	1
1	358	33.972553025596	1
1	371	35.760040689035	1
1	382	38.910210617711	1
1	393	40.415994876348	1
1	399	40.567225730013	1
1	414	42.607539987955	1
1	425	44.648432203867	1
1	436	48.493654073009	1
1	447	49.135363245687	1
1	458	50.740602802749	1
1	469	52.354604877642	1
1	480	52.973534337269	1
1	491	53.708498758459	1
1	502	55.225034732449	1
1	513	56.360973674159	1
1	519	56.486848083597	1
1	534	57.762075785821	1
1	545	58.78350766017	1
1	556	59.655828855212	1
1	562	59.810558535712	1
1	577	60.581393194179	1
1	588	63.475813672166	1
1	599	64.89717835226	1
1	610	65.635005644016	1
1	616	65.746951804649	1
1	631	66.282517524877	1
1	642	66.924212226908	1
1	653	67.231492579061	1
1	662	67.437695861091	1
1	675	68.925950686843	1
1	686	70.261240871467	1
1	697	70.87032329465	1
1	706	71.114371785387	1
1	719	71.954706490999	1
1	727	72.099984518291	1
1	732	72.199984518291	1
1	744	72.510723898169	1
1	759	73.472104837235	1
1	765	73.634241326681	1
1	780	74.581238003856	1
1	789	74.832679935931	1
1	802	75.792227913299	1
1	813	76.280784962607	1
1	824	79.158699983885	1
1	835	81.487613358099	1
1	846	82.632752312799	1
1	857	83.230498389617	1
1	868	83.676016884668	1
1	879	84.625511468165	1
1	890	85.200043874906	1
1	901	87.5263949366	1
1	912	88.722502736057	1
1	920	88.827063961832	1
1	925	88.927063961832	1
1	942	92.389392936753	1
1	953	93.488305404304	1
1	964	94.547139535792	1
1	975	95.657736981479	1
1	981	95.845163047497	1
1	994	96.08136975358	1
1	1007	96.524773782201	1
1	1013	96.662802470629	1
1	1028	98.05184516042	1
1	1039	98.430807124703	1
1	1050	99.366868684474	1
1	1061	99.818970744699	1
1	1072	100.212083302003	1
1	1085	101.056511095531	1
1	1088	101.156511095531	1
1	1103	101.673018562751	1
1	1114	102.678889567918	1
1	1125	107.133386414094	1
1	1136	110.326333056148	1
1	1142	110.433968164304	1
1	1157	111.491794577656	1
1	1166	111.726096096432	1
1	1179	112.734115341852	1
1	1185	112.910028887278	1
1	1200	118.270129237521	1
1	1211	119.328871952615	1
1	1222	120.200787806241	1
1	1231	120.492868339508	1
1	1244	121.027933016591	1
1	1255	121.655874597582	1
1	1266	122.299655599185	1
1	1275	122.579932607664	1
1	1288	123.556796681735	1
1	1294	123.729924137881	1
1	1309	124.142425367803	1
1	1315	124.259380777595	1
1	1330	125.382549079128	1
1	1341	126.450621276278	1
1	1352	126.832177119652	1
1	1358	126.980889388904	1
1	1373	128.487524722177	1
1	1382	128.706405318684	1
1	1395	131.693595210536	1
1	1406	132.153609168276	1
1	1417	133.239878549154	1
1	1430	134.960210206871	1
1	1435	135.060210206871	1
1	1438	135.160210206871	1
1	1457	136.051121600983	1
1	1468	137.870940520267	1
1	1479	138.990754886021	1
1	1485	139.09178966133	1
1	1500	142.665378033674	1
1	1511	146.414409493258	1
1	1522	148.51973079405	1
1	1533	149.152067390446	1
1	1544	149.864650983779	1
1	1557	153.626578268283	1
1	1560	153.726578268283	1
1	1575	154.612383691608	1
1	1586	155.212330578249	1
1	1601	156.556575850401	1
1	1604	156.656575850401	1
1	1607	156.756575850401	1
1	1624	157.199620666472	1
1	1637	157.532030907436	1
1	1648	161.423601030281	1
1	1654	161.551657795592	1
1	1669	161.997077257512	1
1	1680	162.348253346893	1
1	1691	163.003899631257	1
1	1697	163.130288267682	1
1	1712	164.297161794231	1
1	1723	164.679862743093	1
1	1734	166.804099940095	1
1	1745	167.338984315852	1
1	1758	169.842896098937	1
1	1761	169.942896098937	1
1	1771	170.153588948501	1
1	1786	171.332778475566	1
1	1797	172.165621991632	1
1	1808	173.001719523602	1
1	1819	175.004960046109	1
1	1830	175.313374886207	1
1	1841	176.024622823424	1
1	1852	176.765381773871	1
1	1865	179.250964130848	1
1	1868	179.350964130848	1
1	1883	181.889918947225	1
1	1896	182.747814588299	1
1	1899	182.847814588299	1
1	1914	185.483840999315	1
1	1925	185.809181414844	1
1	1938	186.192741628943	1
1	1941	186.292741628943	1
1	1956	187.302988289698	1
1	1967	189.1503159407	1
1	1973	189.291646654261	1
1	1988	190.33342730844	1
1	1999	191.593361118549	1
1	2010	193.434643590036	1
1	2021	193.776297757062	1
1	2032	194.083815480824	1
1	2041	194.286165919391	1
1	2054	194.793366042648	1
1	2065	195.676495084607	1
1	2078	196.481292484408	1
1	2081	196.581292484408	1
1	2089	196.681857195189	1
1	2106	198.447598267602	1
1	2119	198.909329163646	1
1	2124	199.009329163646	1
1	2127	199.109329163646	1
2	8	1.096074504566	1
2	19	1.99463489305	1
2	30	3.250565651097	1
2	41	5.110169863172	1
2	52	6.033392994643	1
2	63	7.984938330527	1
2	74	8.772139470509	1
2	85	10.651103524712	1
2	96	11.202152011382	1
2	107	12.179158437775	1
2	118	13.217317738439	1
2	129	13.702445902161	1
2	140	14.277965099044	1
2	151	14.631124238182	1
2	166	16.854648660218	1
2	171	17.054648660218	1
2	182	20.227945609239	1
2	193	20.546301750081	1
2	204	21.029903855029	1
2	215	21.67935020328	1
2	226	23.248246320903	1
2	237	24.920457521228	1
2	248	25.673131634541	1
2	259	26.327014201762	1
2	270	27.166447054662	1
2	281	27.665319063678	1
2	292	30.263573149527	1
2	307	32.071942413802	1
2	315	32.271942413802	1
2	327	32.55720576551	1
2	332	32.75720576551	1
2	347	33.692979299942	1
2	355	33.892979299942	1
2	363	34.172653025596	1
2	374	35.960140689035	1
2	385	39.110310617711	1
2	401	40.616094876348	1
2	406	40.816094876348	1
2	417	42.807639987955	1
2	428	44.848532203867	1
2	439	48.693754073009	1
2	450	49.335463245687	1
2	461	50.940702802749	1
2	472	52.554704877642	1
2	483	53.173634337269	1
2	494	53.908598758459	1
2	505	55.425134732449	1
2	521	56.561073674159	1
2	526	56.761073674159	1
2	537	57.962175785821	1
2	548	58.98360766017	1
2	564	59.855928855212	1
2	569	60.055928855212	1
2	580	60.781493194179	1
2	591	63.675913672166	1
2	602	65.09727835226	1
2	618	65.835105644016	1
2	623	66.035105644016	1
2	634	66.482617524877	1
2	645	67.124312226908	1
2	659	67.431592579061	1
2	667	67.637795861091	1
2	678	69.126050686843	1
2	689	70.461340871467	1
2	703	71.07042329465	1
2	711	71.314471785387	1
2	729	72.154806490999	1
2	736	72.354806490999	1
2	746	72.554806490999	1
2	751	72.754806490999	1
2	767	73.672204837235	1
2	772	73.872204837235	1
2	786	74.781338003856	1
2	794	75.032779935931	1
2	805	75.992327913299	1
2	816	76.480884962607	1
2	827	79.358799983885	1
2	838	81.687713358099	1
2	849	82.832852312799	1
2	860	83.430598389617	1
2	871	83.876116884668	1
2	882	84.825611468165	1
2	893	85.400143874906	1
2	904	87.7264949366	1
2	922	88.922602736057	1
2	929	89.122602736057	1
2	934	89.322602736057	1
2	945	92.589492936753	1
2	956	93.688405404304	1
2	967	94.747239535792	1
2	983	95.857836981479	1
2	991	96.057836981479	1
2	999	96.28146975358	1
2	1015	96.724873782201	1
2	1020	96.924873782201	1
2	1031	98.25194516042	1
2	1042	98.630907124703	1
2	1053	99.566968684474	1
2	1064	100.019070744699	1
2	1075	100.412183302003	1
2	1090	101.256611095531	1
2	1095	101.456611095531	1
2	1106	101.873118562751	1
2	1117	102.878989567918	1
2	1128	107.333486414094	1
2	1144	110.526433056148	1
2	1149	110.726433056148	1
2	1163	111.691894577656	1
2	1171	111.926196096432	1
2	1187	112.934215341852	1
2	1192	113.134215341852	1
2	1203	118.470229237521	1
2	1214	119.528971952615	1
2	1228	120.400887806241	1
2	1236	120.692968339508	1
2	1247	121.228033016591	1
2	1258	121.855974597582	1
2	1272	122.499755599185	1
2	1280	122.780032607664	1
2	1296	123.756896681735	1
2	1301	123.956896681735	1
2	1317	124.342525367803	1
2	1322	124.542525367803	1
2	1333	125.582649079128	1
2	1344	126.650721276278	1
2	1360	127.032277119652	1
2	1365	127.232277119652	1
2	1379	128.687624722177	1
2	1387	128.906505318684	1
2	1398	131.893695210536	1
2	1409	132.353709168276	1
2	1420	133.439978549154	1
2	1439	135.160310206871	1
2	1444	135.360310206871	1
2	1449	135.560310206871	1
2	1460	136.251221600983	1
2	1471	138.071040520267	1
2	1487	139.190854886021	1
2	1492	139.390854886021	1
2	1503	142.865478033674	1
2	1514	146.614509493258	1
2	1525	148.71983079405	1
2	1536	149.352167390446	1
2	1547	150.064750983779	1
2	1562	153.826678268283	1
2	1567	154.026678268283	1
2	1578	154.812483691608	1
2	1589	155.412430578249	1
2	1608	156.756675850401	1
2	1613	156.956675850401	1
2	1621	157.156675850401	1
2	1629	157.399720666472	1
2	1640	157.732130907436	1
2	1656	161.623701030281	1
2	1661	161.823701030281	1
2	1672	162.197177257512	1
2	1683	162.548353346893	1
2	1699	163.203999631257	1
2	1704	163.403999631257	1
2	1715	164.497261794231	1
2	1726	164.879962743093	1
2	1737	167.004199940095	1
2	1748	167.539084315852	1
2	1763	170.042996098937	1
2	1773	170.242996098937	1
2	1778	170.442996098937	1
2	1789	171.532878475566	1
2	1800	172.365721991632	1
2	1811	173.201819523602	1
2	1822	175.205060046109	1
2	1833	175.513474886207	1
2	1844	176.224722823424	1
2	1855	176.965481773871	1
2	1870	179.451064130848	1
2	1875	179.651064130848	1
2	1886	182.090018947225	1
2	1901	182.947914588299	1
2	1906	183.147914588299	1
2	1917	185.683940999315	1
2	1928	186.009281414844	1
2	1943	186.392841628943	1
2	1948	186.592841628943	1
2	1959	187.503088289698	1
2	1975	189.3504159407	1
2	1980	189.5504159407	1
2	1991	190.53352730844	1
2	2002	191.793461118549	1
2	2013	193.634743590036	1
2	2024	193.976397757062	1
2	2038	194.283915480824	1
2	2046	194.486265919391	1
2	2057	194.993466042648	1
2	2068	195.876595084607	1
2	2086	196.681392484408	1
2	2093	196.881392484408	1
2	2098	197.081392484408	1
2	2109	198.647698267602	1
2	2128	199.109429163646	1
2	2133	199.309429163646	1
2	2138	199.509429163646	1
3	10	1.196074504566	0.4002
3	21	2.09463489305	0.4002
3	32	3.350565651097	0.4002
3	43	5.210169863172	0.4002
3	54	6.133392994643	0.4002
3	65	8.084938330527	0.4002
3	76	8.872139470509	0.4002
3	87	10.751103524712	0.4002
3	98	11.302152011382	0.4002
3	109	12.279158437775	0.4002
3	120	13.317317738439	0.4002
3	131	13.802445902161	0.4002
3	145	14.377965099044	0.4002
3	153	14.731124238182	0.4002
3	168	16.954648660218	0.4002
3	173	17.154648660218	0.541815330907
3	187	20.327945609239	0.4002
3	195	20.646301750081	0.4002
3	206	21.129903855029	0.4002
3	217	21.77935020328	0.4002
3	228	23.348246320903	0.4002
3	239	25.020457521228	0.4002
3	250	25.773131634541	0.4002
3	261	26.427014201762	0.4002
3	272	27.266447054662	0.4002
3	283	27.765319063678	0.4002
3	294	30.363573149527	0.4002
3	309	32.171942413802	0.4002
3	322	32.371942413802	0.526514644535
3	329	32.65720576551	0.4002
3	334	32.85720576551	0.509038973876
3	349	33.792979299942	0.4002
3	360	33.992979299942	0.579774411601
3	365	34.272653025596	0.4002
3	376	36.060140689035	0.4002
3	387	39.210310617711	0.4002
3	403	40.716094876348	0.4002
3	408	40.916094876348	0.448969146335
3	419	42.907639987955	0.4002
3	430	44.948532203867	0.4002
3	441	48.793754073009	0.4002
3	452	49.435463245687	0.4002
3	463	51.040702802749	0.4002
3	474	52.654704877642	0.4002
3	485	53.273634337269	0.4002
3	496	54.008598758459	0.4002
3	507	55.525134732449	0.4002
3	523	56.661073674159	0.4002
3	528	56.861073674159	0.474325590562
3	539	58.062175785821	0.4002
3	550	59.08360766017	0.4002
3	566	59.955928855212	0.4002
3	571	60.155928855212	0.4454703195
3	582	60.881493194179	0.4002
3	593	63.775913672166	0.4002
3	604	65.19727835226	0.4002
3	620	65.935105644016	0.4002
3	625	66.135105644016	0.488253839367
3	636	66.582617524877	0.4002
3	650	67.224312226908	0.4002
3	664	67.531592579061	0.4002
3	669	67.737795861091	0.4002
3	680	69.226050686843	0.4002
3	691	70.561340871467	0.4002
3	708	71.17042329465	0.4002
3	713	71.414471785387	0.4002
3	733	72.254806490999	0.4002
3	741	72.454806490999	0.454921972708
3	748	72.654806490999	0.635953403507
3	753	72.854806490999	0.44418259283
3	769	73.772204837235	0.4002
3	774	73.972204837235	0.438063510554
3	791	74.881338003856	0.4002
3	796	75.132779935931	0.4002
3	807	76.092327913299	0.4002
3	818	76.580884962607	0.4002
3	829	79.458799983885	0.4002
3	840	81.787713358099	0.4002
3	851	82.932852312799	0.4002
3	862	83.530598389617	0.4002
3	873	83.976116884668	0.4002
3	884	84.925611468165	0.4002
3	895	85.500143874906	0.4002
3	906	87.8264949366	0.4002
3	926	89.022602736057	0.4002
3	931	89.222602736057	0.495638774225
3	936	89.422602736057	0.633523483759
3	947	92.689492936753	0.4002
3	958	93.788405404304	0.4002
3	969	94.847239535792	0.4002
3	985	95.957836981479	0.4002
3	996	96.157836981479	0.412773933982
3	1001	96.38146975358	0.4002
3	1017	96.824873782201	0.4002
3	1022	97.024873782201	0.462171311572
3	1036	98.35194516042	0.4002
3	1044	98.730907124703	0.4002
3	1055	99.666968684474	0.4002
3	1069	100.119070744699	0.4002
3	1077	100.512183302003	0.4002
3	1092	101.356611095531	0.4002
3	1097	101.556611095531	0.561016843587
3	1108	101.973118562751	0.4002
3	1119	102.978989567918	0.4002
3	1130	107.433486414094	0.4002
3	1146	110.626433056148	0.4002
3	1151	110.826433056148	0.492564891844
3	1168	111.791894577656	0.4002
3	1173	112.026196096432	0.4002
3	1189	113.034215341852	0.4002
3	1194	113.234215341852	0.424286454574
3	1205	118.570229237521	0.4002
3	1216	119.628971952615	0.4002
3	1233	120.500887806241	0.4002
3	1238	120.792968339508	0.4002
3	1249	121.328033016591	0.4002
3	1260	121.955974597582	0.4002
3	1277	122.599755599185	0.4002
3	1282	122.880032607664	0.4002
3	1298	123.856896681735	0.4002
3	1306	124.056896681735	0.427072543854
3	1319	124.442525367803	0.4002
3	1324	124.642525367803	0.483244590208
3	1335	125.682649079128	0.4002
3	1349	126.750721276278	0.4002
3	1362	127.132277119652	0.4002
3	1367	127.332277119652	0.451487730748
3	1384	128.787624722177	0.4002
3	1389	129.006505318684	0.4002
3	1400	131.993695210536	0.4002
3	1411	132.453709168276	0.4002
3	1422	133.539978549154	0.4002
3	1441	135.260310206871	0.4002
3	1446	135.460310206871	0.586535421569
3	1451	135.660310206871	0.684390540044
3	1462	136.351221600983	0.4002
3	1473	138.171040520267	0.4002
3	1489	139.290854886021	0.4002
3	1494	139.490854886021	0.499165224691
3	1505	142.965478033674	0.4002
3	1516	146.714509493258	0.4002
3	1527	148.81983079405	0.4002
3	1538	149.452167390446	0.4002
3	1549	150.164750983779	0.4002
3	1564	153.926678268283	0.4002
3	1569	154.126678268283	0.542873073576
3	1580	154.912483691608	0.4002
3	1591	155.512430578249	0.4002
3	1610	156.856675850401	0.4002
3	1615	157.056675850401	0.580009871854
3	1626	157.256675850401	0.740033572796
3	1634	157.499720666472	0.4002
3	1642	157.832130907436	0.4002
3	1658	161.723701030281	0.4002
3	1666	161.923701030281	0.472143234689
3	1677	162.297177257512	0.4002
3	1685	162.648353346893	0.4002
3	1701	163.303999631257	0.4002
3	1706	163.503999631257	0.473811363575
3	1720	164.597261794231	0.4002
3	1728	164.979962743093	0.4002
3	1739	167.104199940095	0.4002
3	1750	167.639084315852	0.4002
3	1768	170.142996098937	0.4002
3	1775	170.342996098937	0.533902598518
3	1780	170.542996098937	0.489507150436
3	1791	171.632878475566	0.4002
3	1802	172.465721991632	0.4002
3	1813	173.301819523602	0.4002
3	1827	175.305060046109	0.4002
3	1835	175.613474886207	0.4002
3	1846	176.324722823424	0.4002
3	1857	177.065481773871	0.4002
3	1872	179.551064130848	0.4002
3	1877	179.751064130848	0.501549691582
3	1888	182.190018947225	0.4002
3	1903	183.047914588299	0.4002
3	1908	183.247914588299	0.51342951766
3	1922	185.783940999315	0.4002
3	1935	186.109281414844	0.4002
3	1945	186.492841628943	0.4002
3	1950	186.692841628943	0.590799249336
3	1961	187.603088289698	0.4002
3	1977	189.4504159407	0.4002
3	1982	189.6504159407	0.458869286439
3	1993	190.63352730844	0.4002
3	2004	191.893461118549	0.4002
3	2018	193.734743590036	0.4002
3	2029	194.076397757062	0.4002
3	2043	194.383915480824	0.4002
3	2048	194.586265919391	0.4002
3	2059	195.093466042648	0.4002
3	2070	195.976595084607	0.4002
3	2090	196.781392484408	0.4002
3	2095	196.981392484408	0.579887541204
3	2100	197.181392484408	0.599635289219
3	2111	198.747698267602	0.4002
3	2130	199.209429163646	0.4002
3	2135	199.409429163646	0.595493459508
3	2140	199.609429163646	0.637151953277

