version 3
run General-0-20250427-20:59:11-9544
attr configname General
attr datetime 20250427-20:59:11
attr datetimef 20250427-205911
attr experiment General
attr inifile omnetpp.ini
attr iterationvars ""
attr iterationvarsd ""
attr iterationvarsf ""
attr measurement ""
attr network Network
attr processid 9544
attr repetition 0
attr replication #0
attr resultdir results
attr runnumber 0
attr seedset 0
config network Network
config sim-time-limit 200s
config Network.nodeTx.gen.generationInterval exponential(0.5)
config Network.nodeTx.gen.packetByteSize 12500
config Network.nodeTx.queue.bufferSize 2000000
config Network.queue.bufferSize 200
config Network.nodeRx.queue.bufferSize 200

vector 0 Network.nodeTx.queue BufferSize ETV
vector 1 Network.queue BufferSize ETV
vector 2 Network.nodeRx.queue BufferSize ETV
vector 3 Network.nodeRx.sink Delay ETV
0	2	0.397937252283	1
0	13	0.847217446525	1
0	24	1.475182825549	1
0	35	2.404984931586	1
0	46	2.866596497321	1
0	57	3.842369165263	1
0	66	4.235969735254	1
0	79	5.175451762355	1
0	88	5.45097600569	1
0	101	5.939479218887	1
0	112	6.458558869219	1
0	121	6.70112295108	1
0	132	6.988882549521	1
0	140	7.16546211909	1
0	155	8.277224330108	1
0	158	8.306416664655	1
0	174	9.963872804619	1
0	180	10.12305087504	1
0	193	10.364851927514	1
0	204	10.689575101639	1
0	217	11.474023160451	1
0	228	12.310128760613	1
0	237	12.686465817269	1
0	248	13.01340710088	1
0	261	13.43312352733	1
0	270	13.682559531838	1
0	283	14.981686574762	1
0	294	15.885871206899	1
0	297	15.922713884632	1
0	307	16.128502882753	1
0	310	16.174083395815	1
0	329	16.696389649969	1
0	332	16.706602444169	1
0	344	16.936226512797	1
0	360	17.829970344516	1
0	371	19.405055308854	1
0	382	20.157947438173	1
0	385	20.233562865005	1
0	401	21.253719993976	1
0	412	22.274166101932	1
0	423	24.196777036503	1
0	432	24.517631622842	1
0	445	25.320251401373	1
0	456	26.127252438819	1
0	465	26.436717168632	1
0	476	26.804199379227	1
0	489	27.562467366222	1
0	500	28.130436837077	1
0	503	28.193374041796	1
0	519	28.830987892908	1
0	530	29.341703830083	1
0	541	29.777864427604	1
0	544	29.855229267854	1
0	558	30.240646597088	1
0	571	31.687856836082	1
0	582	32.398539176129	1
0	591	32.767452822007	1
0	596	32.823425902323	1
0	608	33.091208762437	1
0	620	33.412056113453	1
0	626	33.565696289529	1
0	637	33.668797930544	1
0	653	34.41292534342	1
0	664	35.080570435732	1
0	673	35.385111647324	1
0	681	35.507135892692	1
0	694	35.927303245498	1
0	699	35.999942259144	1
0	701	36.009426543745	2
0	711	36.205311949083	1
0	727	36.686002418616	1
0	732	36.767070663339	1
0	747	37.240569001926	1
0	755	37.366289967963	1
0	770	37.846063956647	1
0	779	38.090342481301	1
0	792	39.52929999194	1
0	803	40.693756679047	1
0	814	41.266326156397	1
0	823	41.565199194806	1
0	834	41.787958442332	1
0	847	42.26270573408	1
0	856	42.549971937451	1
0	869	43.713147468298	1
0	880	44.311201368027	1
0	883	44.363481980915	1
0	885	44.394539626148	2
0	907	46.144646468375	1
0	918	46.69410270215	1
0	929	47.223519767894	1
0	940	47.778818490738	1
0	943	47.872531523747	1
0	953	47.990634876788	1
0	965	48.212336891098	1
0	968	48.281351235312	1
0	985	48.975872580208	1
0	993	49.165353562349	1
0	1008	49.633384342235	1
0	1017	49.859435372347	1
0	1025	50.055991650999	1
0	1040	50.478205547763	1
0	1043	50.49779712597	1
0	1055	50.786459281373	1
0	1069	51.289394783956	1
0	1080	53.516643207044	1
0	1091	55.113116528071	1
0	1094	55.166934082149	1
0	1108	55.695847288825	1
0	1116	55.812998048213	1
0	1131	56.317007670923	1
0	1134	56.404964443636	1
0	1150	59.085014618758	1
0	1161	59.614385976305	1
0	1172	60.050343903118	1
0	1178	60.196384169752	1
0	1191	60.463916508294	1
0	1202	60.77788729879	1
0	1213	61.099777799591	1
0	1221	61.23991630383	1
0	1236	61.728348340865	1
0	1239	61.814912068938	1
0	1249	62.021162683899	1
0	1254	62.079640388795	1
0	1271	62.641224539562	1
0	1284	63.175260638137	1
0	1290	63.366038559824	1
0	1296	63.44039469445	1
0	1313	64.193712361086	1
0	1319	64.30315265934	1
0	1334	65.796747605266	1
0	1343	66.026754584136	1
0	1356	66.569889274575	1
0	1367	67.430055103433	1
0	1370	67.436887392648	1
0	1372	67.48795983341	2
0	1390	67.975510800488	1
0	1404	68.88542026013	1
0	1415	69.445327443007	1
0	1418	69.495844830661	1
0	1434	71.282639016833	1
0	1445	73.157154746625	1
0	1456	74.209815397021	1
0	1465	74.525983695219	1
0	1476	74.882275491886	1
0	1489	76.763239134138	1
0	1492	76.79190259735	1
0	1506	77.256141845801	1
0	1517	77.556115289122	1
0	1530	78.228237925198	1
0	1533	78.238332989271	1
0	1535	78.2583211388	2
0	1549	78.549760333233	1
0	1559	78.715965453715	1
0	1577	80.661750515138	1
0	1580	80.725778897794	1
0	1590	80.948488628754	1
0	1600	81.124076673445	1
0	1612	81.451899815627	1
0	1617	81.51509413384	1
0	1634	82.098530897114	1
0	1640	82.289881371545	1
0	1655	83.351999970046	1
0	1664	83.619442157924	1
0	1677	84.871398049467	1
0	1680	84.904546750208	1
0	1685	85.026744474249	1
0	1702	85.616339237782	1
0	1715	86.032760995815	1
0	1726	86.4508097618	1
0	1737	87.452430023054	1
0	1743	87.606637443103	1
0	1756	87.962261411712	1
0	1767	88.332640886936	1
0	1780	89.575432065424	1
0	1783	89.624757219633	1
0	1799	90.894909473612	1
0	1810	91.323857294149	1
0	1813	91.367242535319	1
0	1829	92.691870499657	1
0	1835	92.854540707422	1
0	1844	93.046320814471	1
0	1847	93.051021189803	1
0	1866	93.601444144848	1
0	1879	94.525107970349	1
0	1882	94.595773327129	1
0	1896	95.116663654219	1
0	1909	95.746630559273	1
0	1920	96.667271795017	1
0	1926	96.83809887853	1
0	1935	96.991857740411	1
0	1945	97.093032959695	1
0	1957	97.346633021323	1
0	1969	97.788197542303	1
0	1982	98.190596242204	1
0	1985	98.200752471602	1
0	1990	98.290878597594	1
0	2009	99.173749133801	1
0	2018	99.404614581823	1
0	2021	99.406967852069	1
0	2023	99.486138605184	2
0	2045	100.05245567617	1
0	2058	100.473997192244	1
0	2064	100.631358022671	1
0	2079	101.239612349389	1
0	2090	101.903991286264	1
0	2096	102.074164655382	1
0	2111	103.711736244239	1
0	2120	103.995688320979	1
0	2128	104.138698807233	1
0	2143	104.84421101188	1
0	2154	105.273407495794	1
0	2163	105.525579399088	1
0	2176	105.973874834481	1
0	2187	107.105741622411	1
0	2198	107.530352028193	1
0	2209	108.039681393202	1
0	2215	108.165891389648	1
0	2230	109.276644838885	1
0	2241	110.802785667327	1
0	2252	111.372589649093	1
0	2261	111.668901662819	1
0	2272	111.967091359984	1
0	2285	112.903821299913	1
0	2296	114.825324591535	1
0	2307	115.426443875158	1
0	2310	115.488207198839	1
0	2320	115.664717265476	1
0	2336	116.393126544758	1
0	2347	117.233587647031	1
0	2356	117.498948895339	1
0	2367	117.751458269216	1
0	2380	118.314099277638	1
0	2391	119.378848975672	1
0	2397	119.522554213707	1
0	2410	119.95782212687	1
0	2418	120.145691548073	1
0	2433	121.213106773065	1
0	2444	122.895291999591	1
0	2455	123.484983466413	1
0	2466	123.928914171631	1
0	2477	124.574868806031	1
0	2488	125.113786248099	1
0	2497	125.461685978549	1
0	2508	125.842619864197	1
0	2521	127.405354043026	1
0	2527	127.536382663864	1
0	2542	128.052781169187	1
0	2551	128.303936568317	1
0	2562	128.579634563384	1
0	2575	129.061861346131	1
0	2586	129.528062786334	1
0	2595	129.850115140495	1
0	2598	129.859805031169	1
0	2612	130.177368888984	1
0	2620	130.356832496919	1
0	2636	130.986354255551	1
0	2647	131.526014354879	1
0	2653	131.69584672117	1
0	2662	131.867146533519	1
0	2674	132.108964376814	1
0	2688	132.5901519047	1
0	2699	133.281641507968	1
0	2708	133.561622043005	1
0	2721	134.61534584548	1
0	2724	134.688132834704	1
0	2729	134.742406383951	1
0	2740	134.919518450074	1
0	2743	134.967979827362	1
0	2760	135.389924063657	1
0	2770	135.608438070544	1
0	2784	136.055302609697	1
0	2797	136.456578602576	1
0	2808	136.883618470398	1
0	2811	136.900720179577	1
0	2825	137.430224872268	1
0	2838	139.166492611909	1
0	2849	139.694417416239	1
0	2855	139.887982462314	1
0	2868	140.170287712874	1
0	2876	140.295328460363	1
0	2891	141.429645456709	1
0	2894	141.505792269336	1
0	2906	141.734878711315	1
0	2909	141.786039018741	1
0	2924	142.072269794455	1
0	2938	144.14117467471	1
0	2949	145.253632003323	1
0	2955	145.404414959935	1
0	2970	146.224863748898	1
0	2979	146.609902178671	1
0	2992	147.21841192634	1
0	3001	147.515448675502	1
0	3004	147.568254997316	1
0	3011	147.620695915116	1
0	3030	148.880336980158	1
0	3039	149.09750980813	1
0	3052	149.723813570586	1
0	3061	150.040544879447	1
0	3074	153.423240139416	1
0	3085	154.343106531955	1
0	3088	154.424041575311	1
0	3104	155.599130220186	1
0	3115	156.612084628738	1
0	3118	156.63122608518	1
0	3123	156.719888872753	1
0	3138	157.074847836365	1
0	3150	157.552831048326	1
0	3155	157.644100349267	1
0	3160	157.710192204074	1
0	3179	158.465103931879	1
0	3190	159.407068375172	1
0	3201	160.408061622935	1
0	3212	161.231421173598	1
0	3221	161.496422612666	1
0	3234	161.917363093532	1
0	3237	161.992758598629	1
0	3249	162.254193613673	1
0	3252	162.271087006449	1
0	3254	162.306924698605	2
0	3279	164.331848118007	1
0	3290	164.929567401148	1
0	3299	165.163203684353	1
0	3310	165.465353220277	1
0	3321	165.737781784349	1
0	3334	166.377948886255	1
0	3337	166.403905162346	1
0	3353	167.410291530449	1
0	3362	167.637747452845	1
0	3375	169.492727748797	1
0	3378	169.501111631793	1
0	3394	170.469400250539	1
0	3400	170.600564905122	1
0	3403	170.606456521081	1
0	3423	171.330353562075	1
0	3432	171.553479972335	1
0	3445	172.995785848386	1
0	3456	173.650435030397	1
0	3467	174.343580706408	1
0	3470	174.437728194018	1
0	3482	174.645034465348	1
0	3494	175.013100015341	1
0	3505	175.349330273758	1
0	3508	175.377265300202	1
0	3520	175.584254761538	1
0	3528	175.695824365588	1
0	3535	175.794739119318	1
0	3540	175.804086854528	1
0	3546	175.897846330129	1
0	3566	176.687052691182	1
0	3578	176.998351363171	1
0	3584	177.125104215743	1
0	3601	178.163119745964	1
0	3610	178.374948296642	1
0	3623	179.817220440845	1
0	3634	181.133329872119	1
0	3645	181.601899230981	1
0	3656	182.211297632653	1
0	3667	182.665279646315	1
0	3670	182.681458048638	1
0	3686	183.446873661772	1
0	3689	183.536852332548	1
0	3703	183.883452217317	1
0	3716	184.369193296364	1
0	3719	184.395034749262	1
0	3733	184.825496567602	1
0	3746	185.425982020873	1
0	3752	185.561816056044	1
0	3767	188.001382500041	1
0	3778	189.362056627997	1
0	3784	189.517540530482	1
0	3799	189.993455384253	1
0	3810	190.561753631882	1
0	3819	190.945293459168	1
0	3832	191.943879442913	1
0	3843	192.389568731368	1
0	3854	193.084407263256	1
0	3865	193.739299948937	1
0	3876	195.408267115864	1
0	3882	195.595210363816	1
0	3895	195.999200390516	1
0	3906	196.253132951859	1
0	3912	196.372509388283	1
0	3923	196.490271674992	1
0	3931	196.616070981548	1
0	3941	196.71908700579	1
0	3949	196.842516640189	1
0	3969	198.287054436138	1
0	3980	198.708543823845	1
0	3991	199.381217540462	1
0	4000	199.682057033724	1
1	5	0.498037252283	1
1	16	0.947317446525	1
1	27	1.575282825549	1
1	38	2.505084931586	1
1	49	2.966696497321	1
1	60	3.942469165263	1
1	71	4.336069735254	1
1	82	5.275551762355	1
1	91	5.55107600569	1
1	104	6.039579218887	1
1	115	6.558658869219	1
1	124	6.80122295108	1
1	135	7.088982549521	1
1	146	7.26556211909	1
1	160	8.377324330108	1
1	163	8.477324330108	1
1	177	10.063972804619	1
1	186	10.22315087504	1
1	196	10.464951927514	1
1	209	10.789675101639	1
1	220	11.574123160451	1
1	231	12.410228760613	1
1	242	12.786565817269	1
1	253	13.11350710088	1
1	264	13.53322352733	1
1	273	13.782659531838	1
1	286	15.081786574762	1
1	299	15.985971206899	1
1	302	16.085971206899	1
1	314	16.228602882753	1
1	319	16.328602882753	1
1	334	16.796489649969	1
1	339	16.896489649969	1
1	349	17.036326512797	1
1	363	17.930070344516	1
1	374	19.505155308854	1
1	387	20.258047438173	1
1	390	20.358047438173	1
1	404	21.353819993976	1
1	415	22.374266101932	1
1	426	24.296877036503	1
1	437	24.617731622842	1
1	448	25.420351401373	1
1	459	26.227352438819	1
1	470	26.536817168632	1
1	481	26.904299379227	1
1	492	27.662567366222	1
1	505	28.230536837077	1
1	508	28.330536837077	1
1	522	28.931087892908	1
1	533	29.441803830083	1
1	546	29.877964427604	1
1	549	29.977964427604	1
1	561	30.340746597088	1
1	574	31.787956836082	1
1	585	32.498639176129	1
1	598	32.867552822007	1
1	601	32.967552822007	1
1	613	33.191308762437	1
1	623	33.512156113453	1
1	634	33.665796289529	1
1	642	33.768897930544	1
1	656	34.51302534342	1
1	667	35.180670435732	1
1	678	35.485211647324	1
1	687	35.607235892692	1
1	703	36.027403245498	1
1	706	36.127403245498	1
1	713	36.227403245498	1
1	717	36.327403245498	1
1	734	36.786102418616	1
1	737	36.886102418616	1
1	752	37.340669001926	1
1	761	37.466389967963	1
1	773	37.946163956647	1
1	782	38.190442481301	1
1	795	39.62939999194	1
1	806	40.793856679047	1
1	817	41.366426156397	1
1	826	41.665299194806	1
1	837	41.888058442332	1
1	850	42.36280573408	1
1	859	42.650071937451	1
1	872	43.813247468298	1
1	887	44.411301368027	1
1	890	44.511301368027	1
1	895	44.611301368027	1
1	910	46.244746468375	1
1	921	46.79420270215	1
1	932	47.323619767894	1
1	945	47.878918490738	1
1	948	47.978918490738	1
1	958	48.090734876788	1
1	970	48.312436891098	1
1	975	48.412436891098	1
1	990	49.075972580208	1
1	999	49.265453562349	1
1	1011	49.733484342235	1
1	1020	49.959535372347	1
1	1031	50.156091650999	1
1	1045	50.578305547763	1
1	1048	50.678305547763	1
1	1060	50.886559281373	1
1	1072	51.389494783956	1
1	1083	53.616743207044	1
1	1096	55.213216528071	1
1	1099	55.313216528071	1
1	1113	55.795947288825	1
1	1122	55.913098048213	1
1	1136	56.417107670923	1
1	1139	56.517107670923	1
1	1153	59.185114618758	1
1	1164	59.714485976305	1
1	1175	60.150443903118	1
1	1184	60.296484169752	1
1	1194	60.564016508294	1
1	1207	60.87798729879	1
1	1218	61.199877799591	1
1	1227	61.34001630383	1
1	1241	61.828448340865	1
1	1244	61.928448340865	1
1	1256	62.121262683899	1
1	1261	62.221262683899	1
1	1276	62.741324539562	1
1	1287	63.275360638137	1
1	1298	63.466138559824	1
1	1301	63.566138559824	1
1	1316	64.293812361086	1
1	1325	64.40325265934	1
1	1337	65.896847605266	1
1	1346	66.126854584136	1
1	1359	66.669989274575	1
1	1374	67.530155103433	1
1	1377	67.630155103433	1
1	1382	67.730155103433	1
1	1395	68.075610800488	1
1	1407	68.98552026013	1
1	1420	69.545427443007	1
1	1423	69.645427443007	1
1	1437	71.382739016833	1
1	1448	73.257254746625	1
1	1459	74.309915397021	1
1	1470	74.626083695219	1
1	1481	74.982375491886	1
1	1494	76.863339134138	1
1	1497	76.963339134138	1
1	1509	77.356241845801	1
1	1520	77.656215289122	1
1	1537	78.328337925198	1
1	1540	78.428337925198	1
1	1545	78.528337925198	1
1	1556	78.649860333233	1
1	1564	78.816065453715	1
1	1582	80.761850515138	1
1	1585	80.861850515138	1
1	1595	81.048588628754	1
1	1605	81.224176673445	1
1	1619	81.551999815627	1
1	1622	81.651999815627	1
1	1637	82.198630897114	1
1	1646	82.389981371545	1
1	1658	83.452099970046	1
1	1667	83.719542157924	1
1	1682	84.971498049467	1
1	1687	85.071498049467	1
1	1692	85.171498049467	1
1	1707	85.716439237782	1
1	1718	86.132860995815	1
1	1729	86.5509097618	1
1	1740	87.552530023054	1
1	1749	87.706737443103	1
1	1761	88.062361411712	1
1	1772	88.432740886936	1
1	1785	89.675532065424	1
1	1788	89.775532065424	1
1	1802	90.995009473612	1
1	1815	91.423957294149	1
1	1818	91.523957294149	1
1	1832	92.791970499657	1
1	1841	92.954640707422	1
1	1853	93.146420814471	1
1	1856	93.246420814471	1
1	1871	93.701544144848	1
1	1884	94.625207970349	1
1	1887	94.725207970349	1
1	1901	95.216763654219	1
1	1912	95.846730559273	1
1	1923	96.767371795017	1
1	1932	96.93819887853	1
1	1942	97.091957740411	1
1	1950	97.193132959695	1
1	1960	97.446733021323	1
1	1974	97.888297542303	1
1	1987	98.290696242204	1
1	1992	98.390696242204	1
1	1997	98.490696242204	1
1	2012	99.273849133801	1
1	2025	99.504714581823	1
1	2030	99.604714581823	1
1	2035	99.704714581823	1
1	2048	100.15255567617	1
1	2061	100.574097192244	1
1	2070	100.731458022671	1
1	2082	101.339712349389	1
1	2093	102.004091286264	1
1	2102	102.174264655382	1
1	2114	103.811836244239	1
1	2123	104.095788320979	1
1	2134	104.238798807233	1
1	2146	104.94431101188	1
1	2157	105.373507495794	1
1	2166	105.625679399088	1
1	2179	106.073974834481	1
1	2190	107.205841622411	1
1	2201	107.630452028193	1
1	2212	108.139781393202	1
1	2221	108.265991389648	1
1	2233	109.376744838885	1
1	2244	110.902885667327	1
1	2255	111.472689649093	1
1	2264	111.769001662819	1
1	2275	112.067191359984	1
1	2288	113.003921299913	1
1	2299	114.925424591535	1
1	2312	115.526543875158	1
1	2315	115.626543875158	1
1	2325	115.764817265476	1
1	2339	116.493226544758	1
1	2350	117.333687647031	1
1	2359	117.599048895339	1
1	2370	117.851558269216	1
1	2383	118.414199277638	1
1	2394	119.478948975672	1
1	2403	119.622654213707	1
1	2415	120.05792212687	1
1	2424	120.245791548073	1
1	2436	121.313206773065	1
1	2447	122.995391999591	1
1	2458	123.585083466413	1
1	2469	124.029014171631	1
1	2480	124.674968806031	1
1	2491	125.213886248099	1
1	2502	125.561785978549	1
1	2513	125.942719864197	1
1	2524	127.505454043026	1
1	2533	127.636482663864	1
1	2545	128.152881169187	1
1	2554	128.404036568317	1
1	2565	128.679734563384	1
1	2578	129.161961346131	1
1	2589	129.628162786334	1
1	2602	129.950215140495	1
1	2605	130.050215140495	1
1	2617	130.277468888984	1
1	2627	130.456932496919	1
1	2639	131.086454255551	1
1	2650	131.626114354879	1
1	2659	131.79594672117	1
1	2669	131.967246533519	1
1	2679	132.209064376814	1
1	2691	132.6902519047	1
1	2702	133.381741507968	1
1	2711	133.661722043005	1
1	2726	134.71544584548	1
1	2731	134.81544584548	1
1	2736	134.91544584548	1
1	2749	135.019618450074	1
1	2752	135.119618450074	1
1	2765	135.490024063657	1
1	2775	135.708538070544	1
1	2787	136.155402609697	1
1	2800	136.556678602576	1
1	2813	136.983718470398	1
1	2816	137.083718470398	1
1	2830	137.530324872268	1
1	2841	139.266592611909	1
1	2852	139.794517416239	1
1	2861	139.988082462314	1
1	2871	140.270387712874	1
1	2882	140.395428460363	1
1	2896	141.529745456709	1
1	2899	141.629745456709	1
1	2913	141.834978711315	1
1	2916	141.934978711315	1
1	2927	142.172369794455	1
1	2941	144.24127467471	1
1	2952	145.353732003323	1
1	2961	145.504514959935	1
1	2973	146.324963748898	1
1	2984	146.710002178671	1
1	2995	147.31851192634	1
1	3006	147.615548675502	1
1	3013	147.715548675502	1
1	3018	147.815548675502	1
1	3033	148.980436980158	1
1	3042	149.19760980813	1
1	3055	149.823913570586	1
1	3066	150.140644879447	1
1	3077	153.523340139416	1
1	3090	154.443206531955	1
1	3093	154.543206531955	1
1	3107	155.699230220186	1
1	3120	156.712184628738	1
1	3125	156.812184628738	1
1	3130	156.912184628738	1
1	3141	157.174947836365	1
1	3157	157.652931048326	1
1	3162	157.752931048326	1
1	3167	157.852931048326	1
1	3182	158.565203931879	1
1	3193	159.507168375172	1
1	3204	160.508161622935	1
1	3215	161.331521173598	1
1	3224	161.596522612666	1
1	3239	162.017463093532	1
1	3242	162.117463093532	1
1	3258	162.354293613673	1
1	3261	162.454293613673	1
1	3267	162.554293613673	1
1	3282	164.431948118007	1
1	3293	165.029667401148	1
1	3302	165.263303684353	1
1	3315	165.565453220277	1
1	3324	165.837881784349	1
1	3339	166.478048886255	1
1	3342	166.578048886255	1
1	3356	167.510391530449	1
1	3365	167.737847452845	1
1	3380	169.592827748797	1
1	3383	169.692827748797	1
1	3397	170.569500250539	1
1	3408	170.700664905122	1
1	3411	170.800664905122	1
1	3426	171.430453562075	1
1	3435	171.653579972335	1
1	3448	173.095885848386	1
1	3459	173.750535030397	1
1	3472	174.443680706408	1
1	3475	174.543680706408	1
1	3487	174.745134465348	1
1	3497	175.113200015341	1
1	3512	175.449430273758	1
1	3515	175.549430273758	1
1	3525	175.684354761538	1
1	3537	175.795924365588	1
1	3542	175.895924365588	1
1	3550	175.995924365588	1
1	3554	176.095924365588	1
1	3571	176.787152691182	1
1	3581	177.098451363171	1
1	3592	177.225204215743	1
1	3604	178.263219745964	1
1	3613	178.475048296642	1
1	3626	179.917320440845	1
1	3637	181.233429872119	1
1	3648	181.701999230981	1
1	3659	182.311397632653	1
1	3672	182.765379646315	1
1	3675	182.865379646315	1
1	3691	183.546973661772	1
1	3694	183.646973661772	1
1	3706	183.983552217317	1
1	3721	184.469293296364	1
1	3724	184.569293296364	1
1	3736	184.925596567602	1
1	3749	185.526082020873	1
1	3758	185.661916056044	1
1	3770	188.101482500041	1
1	3781	189.462156627997	1
1	3790	189.617640530482	1
1	3802	190.093555384253	1
1	3813	190.661853631882	1
1	3824	191.045393459168	1
1	3835	192.043979442913	1
1	3846	192.489668731368	1
1	3857	193.184507263256	1
1	3868	193.839399948937	1
1	3879	195.508367115864	1
1	3888	195.695310363816	1
1	3900	196.099300390516	1
1	3909	196.353232951859	1
1	3920	196.472609388283	1
1	3928	196.590371674992	1
1	3938	196.716170981548	1
1	3946	196.81918700579	1
1	3956	196.942616640189	1
1	3972	198.387154436138	1
1	3983	198.808643823845	1
1	3994	199.481317540462	1
1	4005	199.782157033724	1
2	8	0.598137252283	1
2	19	1.047417446525	1
2	30	1.675382825549	1
2	41	2.605184931586	1
2	52	3.066796497321	1
2	63	4.042569165263	1
2	74	4.436169735254	1
2	85	5.375651762355	1
2	96	5.65117600569	1
2	107	6.139679218887	1
2	118	6.658758869219	1
2	129	6.90132295108	1
2	143	7.189082549521	1
2	149	7.36566211909	1
2	165	8.477424330108	1
2	168	8.577424330108	1
2	183	10.164072804619	1
2	189	10.32325087504	1
2	201	10.565051927514	1
2	212	10.889775101639	1
2	223	11.674223160451	1
2	234	12.510328760613	1
2	245	12.886665817269	1
2	256	13.21360710088	1
2	267	13.63332352733	1
2	278	13.882759531838	1
2	289	15.181886574762	1
2	304	16.086071206899	1
2	312	16.186071206899	1
2	321	16.328702882753	1
2	323	16.428702882753	2
2	341	16.896589649969	1
2	347	16.996589649969	1
2	354	17.136426512797	1
2	366	18.030170344516	1
2	377	19.605255308854	1
2	392	20.358147438173	1
2	395	20.458147438173	1
2	407	21.453919993976	1
2	418	22.474366101932	1
2	429	24.396977036503	1
2	440	24.717831622842	1
2	451	25.520451401373	1
2	462	26.327452438819	1
2	473	26.636917168632	1
2	484	27.004399379227	1
2	495	27.762667366222	1
2	510	28.330636837077	1
2	513	28.430636837077	1
2	525	29.031187892908	1
2	536	29.541903830083	1
2	551	29.978064427604	1
2	554	30.078064427604	1
2	566	30.440846597088	1
2	577	31.888056836082	1
2	588	32.598739176129	1
2	603	32.967652822007	1
2	606	33.067652822007	1
2	616	33.291408762437	1
2	631	33.612256113453	1
2	640	33.765896289529	1
2	647	33.868997930544	1
2	659	34.61312534342	1
2	670	35.280770435732	1
2	684	35.585311647324	1
2	690	35.707335892692	1
2	708	36.127503245498	1
2	715	36.227503245498	1
2	721	36.327503245498	1
2	723	36.427503245498	2
2	739	36.886202418616	1
2	743	36.986202418616	1
2	758	37.440769001926	1
2	764	37.566489967963	1
2	776	38.046263956647	1
2	787	38.290542481301	1
2	798	39.72949999194	1
2	809	40.893956679047	1
2	820	41.466526156397	1
2	831	41.765399194806	1
2	842	41.988158442332	1
2	853	42.46290573408	1
2	864	42.750171937451	1
2	875	43.913347468298	1
2	892	44.511401368027	1
2	897	44.611401368027	1
2	901	44.711401368027	1
2	913	46.344846468375	1
2	924	46.89430270215	1
2	935	47.423719767894	1
2	950	47.979018490738	1
2	956	48.079018490738	1
2	963	48.190834876788	1
2	977	48.412536891098	1
2	979	48.512536891098	2
2	996	49.176072580208	1
2	1002	49.365553562349	1
2	1014	49.833584342235	1
2	1028	50.059635372347	1
2	1034	50.256191650999	1
2	1050	50.678405547763	1
2	1053	50.778405547763	1
2	1063	50.986659281373	1
2	1075	51.489594783956	1
2	1086	53.716843207044	1
2	1101	55.313316528071	1
2	1104	55.413316528071	1
2	1119	55.896047288825	1
2	1125	56.013198048213	1
2	1141	56.517207670923	1
2	1144	56.617207670923	1
2	1156	59.285214618758	1
2	1167	59.814585976305	1
2	1181	60.250543903118	1
2	1187	60.396584169752	1
2	1199	60.664116508294	1
2	1210	60.97808729879	1
2	1224	61.299977799591	1
2	1230	61.44011630383	1
2	1246	61.928548340865	1
2	1252	62.028548340865	1
2	1263	62.221362683899	1
2	1265	62.321362683899	2
2	1279	62.841424539562	1
2	1293	63.375460638137	1
2	1303	63.566238559824	1
2	1307	63.666238559824	1
2	1322	64.393912361086	1
2	1328	64.50335265934	1
2	1340	65.996947605266	1
2	1351	66.226954584136	1
2	1362	66.770089274575	1
2	1379	67.630255103433	1
2	1384	67.730255103433	1
2	1388	67.830255103433	1
2	1398	68.175710800488	1
2	1410	69.08562026013	1
2	1425	69.645527443007	1
2	1428	69.745527443007	1
2	1440	71.482839016833	1
2	1451	73.357354746625	1
2	1462	74.410015397021	1
2	1473	74.726183695219	1
2	1484	75.082475491886	1
2	1499	76.963439134138	1
2	1502	77.063439134138	1
2	1514	77.456341845801	1
2	1525	77.756315289122	1
2	1542	78.428437925198	1
2	1547	78.528437925198	1
2	1554	78.628437925198	1
2	1562	78.749960333233	2
2	1569	78.916165453715	2
2	1587	80.861950515138	1
2	1593	80.961950515138	1
2	1603	81.148688628754	1
2	1610	81.324276673445	1
2	1624	81.652099815627	1
2	1628	81.752099815627	1
2	1643	82.298730897114	1
2	1649	82.490081371545	1
2	1661	83.552199970046	1
2	1672	83.819642157924	1
2	1689	85.071598049467	1
2	1694	85.171598049467	1
2	1698	85.271598049467	1
2	1710	85.816539237782	1
2	1721	86.232960995815	1
2	1732	86.6510097618	1
2	1746	87.652630023054	1
2	1752	87.806837443103	1
2	1764	88.162461411712	1
2	1775	88.532840886936	1
2	1790	89.775632065424	1
2	1793	89.875632065424	1
2	1805	91.095109473612	1
2	1820	91.524057294149	1
2	1823	91.624057294149	1
2	1838	92.892070499657	1
2	1849	93.054740707422	1
2	1858	93.246520814471	1
2	1862	93.346520814471	1
2	1874	93.801644144848	1
2	1889	94.725307970349	1
2	1892	94.825307970349	1
2	1904	95.316863654219	1
2	1915	95.946830559273	1
2	1929	96.867471795017	1
2	1938	97.03829887853	1
2	1948	97.192057740411	1
2	1955	97.293232959695	1
2	1965	97.546833021323	1
2	1977	97.988397542303	1
2	1994	98.390796242204	1
2	1999	98.490796242204	1
2	2003	98.590796242204	1
2	2015	99.373949133801	1
2	2032	99.604814581823	1
2	2037	99.704814581823	1
2	2041	99.804814581823	1
2	2053	100.25265567617	1
2	2067	100.674197192244	1
2	2073	100.831558022671	1
2	2085	101.439812349389	1
2	2099	102.104191286264	1
2	2105	102.274364655382	1
2	2117	103.911936244239	1
2	2131	104.195888320979	1
2	2137	104.338898807233	1
2	2149	105.04441101188	1
2	2160	105.473607495794	1
2	2171	105.725779399088	1
2	2182	106.174074834481	1
2	2193	107.305941622411	1
2	2204	107.730552028193	1
2	2218	108.239881393202	1
2	2224	108.366091389648	1
2	2236	109.476844838885	1
2	2247	111.002985667327	1
2	2258	111.572789649093	1
2	2269	111.869101662819	1
2	2280	112.167291359984	1
2	2291	113.104021299913	1
2	2302	115.025524591535	1
2	2317	115.626643875158	1
2	2323	115.726643875158	1
2	2330	115.864917265476	1
2	2342	116.593326544758	1
2	2353	117.433787647031	1
2	2364	117.699148895339	1
2	2375	117.951658269216	1
2	2386	118.514299277638	1
2	2400	119.579048975672	1
2	2406	119.722754213707	1
2	2421	120.15802212687	1
2	2427	120.345891548073	1
2	2439	121.413306773065	1
2	2450	123.095491999591	1
2	2461	123.685183466413	1
2	2472	124.129114171631	1
2	2483	124.775068806031	1
2	2494	125.313986248099	1
2	2505	125.661885978549	1
2	2516	126.042819864197	1
2	2530	127.605554043026	1
2	2536	127.736582663864	1
2	2548	128.252981169187	1
2	2559	128.504136568317	1
2	2570	128.779834563384	1
2	2581	129.262061346131	1
2	2592	129.728262786334	1
2	2607	130.050315140495	1
2	2610	130.150315140495	1
2	2623	130.377568888984	1
2	2630	130.557032496919	1
2	2642	131.186554255551	1
2	2656	131.726214354879	1
2	2665	131.89604672117	1
2	2672	132.067346533519	1
2	2682	132.309164376814	1
2	2694	132.7903519047	1
2	2705	133.481841507968	1
2	2716	133.761822043005	1
2	2733	134.81554584548	1
2	2738	134.91554584548	1
2	2747	135.01554584548	1
2	2754	135.119718450074	2
2	2758	135.219718450074	2
2	2768	135.590124063657	2
2	2778	135.808638070544	2
2	2792	136.255502609697	1
2	2803	136.656778602576	1
2	2818	137.083818470398	1
2	2821	137.183818470398	1
2	2833	137.630424872268	1
2	2844	139.366692611909	1
2	2858	139.894617416239	1
2	2864	140.088182462314	1
2	2879	140.370487712874	1
2	2885	140.495528460363	1
2	2901	141.629845456709	1
2	2904	141.729845456709	1
2	2918	141.935078711315	1
2	2922	142.035078711315	1
2	2932	142.272469794455	1
2	2944	144.34137467471	1
2	2958	145.453832003323	1
2	2964	145.604614959935	1
2	2976	146.425063748898	1
2	2987	146.810102178671	1
2	2998	147.41861192634	1
2	3015	147.715648675502	1
2	3020	147.815648675502	1
2	3024	147.915648675502	1
2	3036	149.080536980158	1
2	3047	149.29770980813	1
2	3058	149.924013570586	1
2	3069	150.240744879447	1
2	3080	153.623440139416	1
2	3095	154.543306531955	1
2	3098	154.643306531955	1
2	3110	155.799330220186	1
2	3127	156.812284628738	1
2	3132	156.912284628738	1
2	3136	157.012284628738	1
2	3146	157.275047836365	1
2	3164	157.753031048326	1
2	3169	157.853031048326	1
2	3173	157.953031048326	1
2	3185	158.665303931879	1
2	3196	159.607268375172	1
2	3207	160.608261622935	1
2	3218	161.431621173598	1
2	3229	161.696622612666	1
2	3244	162.117563093532	1
2	3247	162.217563093532	1
2	3263	162.454393613673	1
2	3269	162.554393613673	1
2	3271	162.654393613673	2
2	3285	164.532048118007	1
2	3296	165.129767401148	1
2	3307	165.363403684353	1
2	3318	165.665553220277	1
2	3329	165.937981784349	1
2	3344	166.578148886255	1
2	3347	166.678148886255	1
2	3359	167.610491530449	1
2	3370	167.837947452845	1
2	3385	169.692927748797	1
2	3388	169.792927748797	1
2	3405	170.669600250539	1
2	3413	170.800764905122	1
2	3417	170.900764905122	1
2	3429	171.530553562075	1
2	3440	171.753679972335	1
2	3451	173.195985848386	1
2	3462	173.850635030397	1
2	3477	174.543780706408	1
2	3480	174.643780706408	1
2	3490	174.845234465348	1
2	3502	175.213300015341	1
2	3517	175.549530273758	1
2	3523	175.649530273758	1
2	3533	175.784454761538	1
2	3544	175.896024365588	2
2	3552	175.996024365588	2
2	3556	176.096024365588	3
2	3560	176.196024365588	3
2	3574	176.887252691182	1
2	3589	177.198551363171	1
2	3595	177.325304215743	1
2	3607	178.363319745964	1
2	3618	178.575148296642	1
2	3629	180.017420440845	1
2	3640	181.333529872119	1
2	3651	181.802099230981	1
2	3662	182.411497632653	1
2	3677	182.865479646315	1
2	3680	182.965479646315	1
2	3696	183.647073661772	1
2	3699	183.747073661772	1
2	3711	184.083652217317	1
2	3726	184.569393296364	1
2	3729	184.669393296364	1
2	3741	185.025696567602	1
2	3755	185.626182020873	1
2	3761	185.762016056044	1
2	3773	188.201582500041	1
2	3787	189.562256627997	1
2	3793	189.717740530482	1
2	3805	190.193655384253	1
2	3816	190.761953631882	1
2	3827	191.145493459168	1
2	3838	192.144079442913	1
2	3849	192.589768731368	1
2	3860	193.284607263256	1
2	3871	193.939499948937	1
2	3885	195.608467115864	1
2	3891	195.795410363816	1
2	3903	196.199400390516	1
2	3917	196.453332951859	1