version 3
run General-0-20250427-20:33:32-261917
attr configname General
attr datetime 20250427-20:33:32
attr datetimef 20250427-203332
attr experiment General
attr inifile omnetpp.ini
attr iterationvars ""
attr iterationvarsd ""
attr iterationvarsf ""
attr measurement ""
attr network Network
attr processid 261917
attr repetition 0
attr replication #0
attr resultdir results
attr runnumber 0
attr seedset 0
config network Network
config sim-time-limit 200s
config Network.nodeTx.gen.generationInterval exponential(0.1)
config Network.nodeTx.gen.packetByteSize 12500
config Network.nodeTx.queue.bufferSize 2000000
config Network.queue.bufferSize 200
config Network.nodeRx.queue.bufferSize 200

vector 0 Network.nodeTx.queue BufferSize ETV
vector 1 Network.queue BufferSize ETV
vector 2 Network.nodeRx.queue BufferSize ETV
vector 3 Network.nodeRx.sink Delay ETV
vector 4 Network.nodeRx.queue PacketDrop ETV
0	2	0.079587450457	1
0	5	0.169443489305	1
0	15	0.29503656511	1
0	25	0.480996986317	1
0	30	0.573319299464	1
0	41	0.768473833052	1
0	46	0.84719394705	1
0	57	1.03509035247	1
0	64	1.090195201137	1
0	69	1.187895843776	1
0	77	1.291711773842	1
0	83	1.340224590214	1
0	85	1.397776509902	2
0	87	1.433092423816	3
0	103	1.65544486602	1
0	105	1.661283332929	2
0	123	1.992774560922	1
0	126	2.024610175006	1
0	130	2.072970385501	2
0	137	2.137915020326	2
0	149	2.294804632088	1
0	155	2.46202575212	1
0	163	2.537293163451	1
0	169	2.602681420173	1
0	173	2.686624705463	2
0	179	2.736511906365	2
0	195	2.99633731495	1
0	205	3.177174241377	1
0	208	3.184542776924	1
0	212	3.225700576548	2
0	214	3.23481667916	3
0	221	3.339277929991	3
0	223	3.341320488831	4
0	229	3.387245302557	4
0	237	3.565994068901	4
0	259	3.881011061769	1
0	265	4.031589487633	1
0	267	4.046712572999	2
0	279	4.250743998793	1
0	291	4.454833220384	1
0	305	4.839355407298	1
0	310	4.903526324566	1
0	319	5.064050280272	1
0	329	5.225450487761	1
0	336	5.287343433724	1
0	341	5.360839875843	1
0	349	5.512493473242	1
0	359	5.626087367413	1
0	362	5.638674808357	1
0	371	5.766197578579	1
0	377	5.868340766014	1
0	385	5.955572885518	1
0	387	5.971045853568	2
0	393	6.048129319415	2
0	411	6.337571367214	1
0	419	6.479707835223	1
0	426	6.553490564399	1
0	428	6.564685180462	2
0	433	6.618241752485	2
0	441	6.682411222688	2
0	443	6.713139257903	3
0	445	6.733759586106	4
0	457	6.882585068681	3
0	463	7.016114087143	3
0	465	7.077022329461	4
0	473	7.101427178535	4
0	479	7.185460649096	4
0	481	7.199988451825	5
0	483	7.201885308745	6
0	485	7.241062389813	7
0	493	7.33720048372	7
0	495	7.353414132665	8
0	501	7.448113800382	8
0	503	7.473257993589	9
0	511	7.569212791326	9
0	517	7.618068496257	9
0	535	7.905859998385	7
0	547	8.138751335806	6
0	553	8.253265231276	6
0	561	8.313039838958	6
0	563	8.357591688463	7
0	569	8.452541146813	7
0	577	8.509994387487	7
0	589	8.742629493656	6
0	595	8.862240273602	6
0	597	8.87269639618	7
0	599	8.878907925227	8
0	621	9.228929293672	5
0	629	9.338820540427	5
0	635	9.444703953576	5
0	643	9.555763698145	5
0	645	9.574506304747	6
0	651	9.598126975355	6
0	653	9.642467378217	7
0	655	9.65627024706	8
0	667	9.795174516039	7
0	669	9.833070712467	8
0	677	9.926676868444	8
0	679	9.971887074466	9
0	685	10.011198330196	9
0	693	10.095641109549	9
0	695	10.09955942519	10
0	697	10.157291856271	11
0	703	10.257878956788	11
0	731	10.703328641406	7
0	747	11.022623305611	5
0	749	11.033386816427	6
0	757	11.139169457762	6
0	759	11.16259960964	7
0	765	11.263401534182	7
0	773	11.280992888725	7
0	799	11.817002923749	3
0	807	11.922877195258	3
0	813	12.010068780621	3
0	815	12.039276833948	4
0	823	12.092783301656	4
0	825	12.155577459755	5
0	831	12.219955559915	5
0	833	12.247983260763	6
0	841	12.34566966817	6
0	843	12.362982413785	7
0	849	12.404232536777	7
0	851	12.415928077756	8
0	859	12.528244907909	8
0	865	12.635052127624	8
0	867	12.673207711961	9
0	875	12.688078938886	9
0	881	12.838742472213	9
0	883	12.860630531864	10
0	901	13.159349521049	8
0	907	13.205350916823	8
0	915	13.313977854911	8
0	927	13.486011020683	7
0	929	13.487377478526	8
0	931	13.497591966678	9
0	937	13.595102160094	9
0	945	13.777084052022	9
0	957	13.889065488597	8
0	959	13.899168966128	9
0	975	14.256527803362	7
0	997	14.63143094932	4
0	1009	14.841963079399	3
0	1017	14.905196739039	3
0	1019	14.976455098372	4
0	1041	15.352647826822	1
0	1043	15.358380519464	2
0	1049	15.451228369154	2
0	1057	15.511223057818	2
0	1063	15.645647585033	2
0	1065	15.647666597848	3
0	1067	15.651664227754	4
0	1075	15.709952066641	4
0	1077	15.743193090737	5
0	1099	16.132350103022	2
0	1101	16.145155779553	3
0	1107	16.189697725745	3
0	1109	16.224815334683	4
0	1117	16.290379963119	4
0	1119	16.303018826762	5
0	1125	16.419706179417	5
0	1127	16.457976274303	6
0	1139	16.670399994003	5
0	1147	16.723888431579	5
0	1159	16.974279609888	4
0	1165	16.980909350036	4
0	1167	17.005348894844	5
0	1175	17.123267847551	5
0	1181	17.206552199158	5
0	1189	17.290161952355	5
0	1201	17.490486004606	4
0	1203	17.521327488616	5
0	1209	17.592452282338	5
0	1211	17.666528177383	6
0	1229	17.915086413081	4
0	1231	17.924951443923	5
0	1243	18.178981894719	4
0	1249	18.264771458826	4
0	1251	18.27344850706	5
0	1269	18.538374099928	3
0	1271	18.570908141481	4
0	1277	18.609264162891	4
0	1279	18.610204237957	5
0	1287	18.720288828966	5
0	1299	18.905021594066	4
0	1301	18.919154665422	5
0	1307	19.02333273084	5
0	1315	19.149326111851	5
0	1327	19.333454359	4
0	1329	19.367619775703	5
0	1335	19.398371548079	5
0	1337	19.418606591936	6
0	1339	19.469326604262	7
0	1347	19.557639508458	7
0	1353	19.638119248438	7
0	1355	19.640150494318	8
0	1357	19.658175719516	9
0	1369	19.834749826757	8
0	1377	19.880922916361	8
0	1379	19.88139357041	9
0	1381	19.897227721033	10
0	1387	20.01049113523	10
0	1395	20.094799438445	10
0	1397	20.12627160453	11
0	1403	20.247922469874	11
0	1415	20.380798257249	10
0	1417	20.414832931073	11
0	1435	20.742347248844	9
0	1441	20.799137664192	9
0	1443	20.827739761443	10
0	1451	20.968842202372	10
0	1457	21.054681499155	10
0	1465	21.105115879814	10
0	1471	21.194774966893	10
0	1483	21.421148324479	9
0	1491	21.506070405635	9
0	1497	21.607936278637	9
0	1499	21.633178277926	10
0	1511	21.855328967773	9
0	1529	22.160557133461	7
0	1535	22.274517929814	7
0	1543	22.333780332559	7
0	1549	22.393418271992	7
0	1561	22.580764259978	6
0	1579	22.965064918302	4
0	1591	23.085288775027	3
0	1593	23.097641439763	4
0	1595	23.13294345309	5
0	1601	23.278625308946	5
0	1613	23.446717529401	4
0	1621	23.499789779063	4
0	1623	23.550291653838	5
0	1629	23.662819855522	5
0	1641	23.875769795129	4
0	1649	23.904510842736	4
0	1655	23.991564425369	4
0	1657	24.02913830961	5
0	1669	24.242621354608	4
0	1687	24.579058399913	2
0	1699	24.696996693277	1
0	1705	24.785782834321	1
0	1713	24.914973761201	1
0	1719	25.022757249615	1
0	1727	25.092337195705	1
0	1729	25.168523972835	2
0	1749	25.481070808601	1
0	1752	25.507276532769	1
0	1757	25.610556233834	1
0	1759	25.66078731366	2
0	1767	25.715926912673	2
0	1773	25.812372269222	2
0	1781	25.905612557263	2
0	1783	25.970023028095	3
0	1785	25.97196100623	4
0	1791	26.035473777793	4
0	1793	26.07136649938	5
0	1805	26.197270851106	4
0	1813	26.305202870972	4
0	1815	26.33916934423	5
0	1817	26.3734293067	6
0	1823	26.421792875359	6
0	1831	26.518030380936	6
0	1837	26.65632830159	6
0	1845	26.712324408597	6
0	1857	26.923069169092	5
0	1859	26.937626566937	6
0	1861	26.948481276786	7
0	1867	26.983903690011	7
0	1869	26.993595965469	8
0	1871	27.077984812728	9
0	1879	27.121687614105	9
0	1885	27.211060521936	9
0	1893	27.291315720512	9
0	1895	27.376723694076	10
0	1897	27.380144035912	11
0	1909	27.48604497445	10
0	1925	27.833298522378	8
0	1933	27.938883483244	8
0	1935	27.977596492459	9
0	1941	28.034057542571	9
0	1943	28.059065692069	10
0	1961	28.285929091338	8
0	1963	28.301158453863	9
0	1965	28.346975742259	10
0	1967	28.357207803744	11
0	1973	28.414453958887	11
0	1995	28.828234934938	8
0	2007	29.050726400661	7
0	2011	29.080882991983	8
0	2021	29.244972749776	7
0	2029	29.321980435731	7
0	2035	29.443682385265	7
0	2043	29.503089735097	7
0	2045	29.51365099946	8
0	2047	29.52413918302	9
0	2059	29.776067396028	8
0	2065	29.819501961622	8
0	2073	29.944762714113	8
0	2079	30.008108975885	8
0	2117	30.684648027879	2
0	2123	30.868621306387	2
0	2131	30.884808315058	2
0	2143	31.119826044033	1
0	2155	31.322416925743	1
0	2158	31.326245217031	1
0	2160	31.343977774546	2
0	2164	31.414969567268	3
0	2171	31.51056620966	3
0	2177	31.528820069848	3
0	2179	31.542038440809	4
0	2187	31.69302078637	4
0	2199	31.881413675029	3
0	2211	32.081612324582	2
0	2221	32.246284234715	1
0	2225	32.299284522529	2
0	2231	32.383472618702	2
0	2233	32.398551719721	3
0	2239	32.45083872273	3
0	2241	32.454217401285	4
0	2243	32.461384939716	5
0	2265	32.866369623596	2
0	2273	32.985913480224	2
0	2279	33.032640736865	2
0	2283	33.09307064405	3
0	2289	33.147556356864	3
0	2295	33.275589777245	3
0	2299	33.280781032463	4
0	2311	33.482058306084	3
0	2317	33.527549490563	3
0	2335	33.898545549753	1
0	2337	33.900222326352	2
0	2349	34.093880050101	1
0	2351	34.120112981018	2
0	2353	34.12129130421	3
0	2363	34.266070712409	2
0	2367	34.310695994461	3
0	2383	34.599157169671	1
0	2395	34.730087006073	1
0	2403	34.868716141275	1
0	2408	34.887545638797	1
0	2410	34.929006893063	2
0	2417	35.002620003062	2
0	2423	35.069866054745	2
0	2425	35.075453060034	3
0	2429	35.116850952301	4
0	2431	35.139164873111	5
0	2433	35.158947823857	6
0	2435	35.160817370899	7
0	2441	35.179569266019	7
0	2449	35.33741053823	7
0	2455	35.399670272628	7
0	2457	35.425020843142	8
0	2469	35.632623949186	7
0	2475	35.674989659322	7
0	2489	35.963444088163	6
0	2505	36.226665974418	4
0	2513	36.32037984619	4
0	2519	36.442259526524	4
0	2527	36.533055929256	4
0	2529	36.536291609721	5
0	2541	36.689374732348	4
0	2543	36.707370466503	5
0	2549	36.776690443457	5
0	2555	36.873838659266	5
0	2557	36.879006949846	6
0	2561	36.965099313514	7
0	2573	37.085196404168	6
0	2575	37.112363211202	7
0	2601	37.600276500001	3
0	2617	37.872411325592	1
0	2621	37.903508106089	2
0	2627	37.998691076843	2
0	2635	38.112350726369	2
0	2641	38.189058691826	2
0	2653	38.388775888575	1
0	2659	38.477913746266	1
0	2667	38.616881452644	1
0	2675	38.74785998978	1
0	2691	39.081653423165	1
0	2694	39.119042072755	1
0	2699	39.199840078095	1
0	2701	39.250626590364	2
0	2703	39.274501877649	3
0	2711	39.298054334991	3
0	2713	39.323214196302	4
0	2715	39.34381740115	5
0	2717	39.36850332803	6
0	2733	39.65741088722	4
0	2741	39.741708764761	4
0	2747	39.876243508084	4
0	2755	39.936411406736	4
0	2761	40.0038358637	4
0	2779	40.355283731754	2
0	2781	40.381085008148	3
0	2793	40.495198798434	2
0	2795	40.524549563626	3
0	2797	40.533464992626	4
0	2799	40.539443088918	5
0	2801	40.54525032513	6
0	2807	40.602240081661	6
0	2809	40.66915145403	7
0	2817	40.706518433469	7
0	2829	40.919385442922	6
0	2835	41.038571253287	6
0	2857	41.41324071467	3
0	2859	41.460682343703	4
0	2867	41.55682630086	4
0	2869	41.576623074393	5
0	2875	41.654820646481	5
0	2877	41.657319481812	6
0	2889	41.8501554955	5
0	2891	41.857117262607	6
0	2903	41.993310435038	5
0	2911	42.107064285592	5
0	2913	42.172187358784	6
0	2919	42.232645480618	6
0	2927	42.345681035209	6
0	2933	42.422593015319	6
0	2941	42.51599904858	6
0	2953	42.742983050158	5
0	2959	42.868403377167	5
0	2987	43.332368629804	1
0	2993	43.395761631743	1
0	2995	43.420210733947	2
0	2999	43.481094025321	3
0	3009	43.589884468682	2
0	3021	43.826776285766	1
0	3023	43.857336775947	2
0	3025	43.872096379236	3
0	3027	43.874183101097	4
0	3035	43.900218242252	4
0	3041	44.042256587811	4
0	3053	44.255612916558	3
0	3061	44.294181685963	3
0	3073	44.528966062106	2
0	3075	44.577329900855	3
0	3083	44.681114908404	3
0	3089	44.769865101252	3
0	3095	44.809122404071	3
0	3107	44.986936737754	2
0	3109	45.060273505071	3
0	3117	45.159423934361	3
0	3119	45.159429469551	4
0	3131	45.365511593639	3
0	3137	45.402887923021	3
0	3139	45.434845388508	4
0	3147	45.490262471413	4
0	3153	45.650234415597	4
0	3165	45.866810783684	3
0	3173	45.887345560558	3
0	3179	46.001251325625	3
0	3197	46.306569792584	1
0	3199	46.367474253855	2
0	3211	46.483785582198	1
0	3213	46.549835890173	2
0	3215	46.57410773954	3
0	3227	46.729574033321	2
0	3243	47.024022061063	1
0	3246	47.050086074001	1
0	3255	47.181336873298	1
0	3267	47.393611538692	1
0	3270	47.422906684541	1
0	3274	47.460549619693	2
0	3278	47.484541971637	3
0	3297	47.800251525779	1
0	3300	47.873274292303	1
0	3309	47.937093152862	1
0	3311	47.939692927381	2
0	3317	48.064028005176	2
0	3321	48.087280507014	3
0	3327	48.103967971137	3
0	3329	48.159251808202	4
0	3337	48.290349045018	4
0	3343	48.337216692616	4
0	3349	48.441137256274	4
0	3357	48.50342018725	4
0	3359	48.527612151727	5
0	3361	48.560133753525	6
0	3363	48.580769552885	7
0	3369	48.669148118488	7
0	3381	48.833955735804	6
0	3393	49.033359655932	5
0	3401	49.170827651312	5
0	3403	49.183330910304	6
0	3411	49.295676960259	6
0	3417	49.368529344532	6
0	3423	49.400949255881	6
0	3425	49.415113459361	7
0	3427	49.434339603445	8
0	3435	49.560520870794	8
0	3443	49.682420805312	8
0	3449	49.732848798637	8
0	3451	49.795052490545	9
0	3457	49.87839031461	9
0	3469	50.061916654904	8
0	3473	50.082162531274	9
0	3479	50.105086963795	9
0	3481	50.120734540833	10
0	3483	50.138761970791	11
0	3489	50.205716029877	11
0	3491	50.219050092204	12
0	3493	50.262995631253	13
0	3501	50.391038066651	13
0	3517	50.673101661493	11
0	3519	50.676194290649	12
0	3531	50.821149768292	11
0	3539	50.958584069734	11
0	3547	51.096680379301	11
0	3553	51.106397147138	11
0	3565	51.340446343204	10
0	3567	51.364966152468	11
0	3569	51.373677010794	12
0	3581	51.512008657409	11
0	3583	51.592347833676	12
0	3595	51.723910459506	11
0	3601	51.811731967378	11
0	3603	51.816400741742	12
0	3621	52.143250381824	10
0	3623	52.16671596675	11
0	3629	52.201267925121	11
0	3631	52.235083396605	12
0	3633	52.262636190309	13
0	3641	52.375728038228	13
0	3643	52.386296755638	14
0	3645	52.392808042117	15
0	3647	52.394464651559	16
0	3653	52.475578753782	16
0	3671	52.740834605334	14
0	3673	52.741762907772	15
0	3679	52.852603883193	15
0	3691	53.031602843641	14
0	3699	53.185385715089	14
0	3725	53.600982824645	10
0	3727	53.634073812763	11
0	3735	53.755642860099	11
0	3741	53.843930914595	11
0	3743	53.863975134104	12
0	3745	53.870584335173	13
0	3753	53.942408983184	13
0	3759	54.008889758139	13
0	3763	54.095746331286	14
0	3783	54.475148709595	11
0	3795	54.630049877511	10
0	3807	54.839205534773	9
0	3815	54.9324667203	9
0	3817	54.973739706973	10
0	3819	54.998381289194	11
0	3841	55.324273386912	8
0	3843	55.385001315774	9
0	3849	55.411359027058	9
0	3861	55.622447904496	8
0	3879	55.920667972043	6
0	3881	55.988448172249	7
0	3897	56.272112191587	5
0	3905	56.397835891144	5
0	3917	56.558381767451	4
0	3923	56.624966016115	4
0	3931	56.724512380452	4
0	3937	56.847800426755	4
0	3949	57.055176573065	3
0	3957	57.12412002685	3
0	3959	57.158795357229	4
0	3971	57.344938521527	3
0	3983	57.533948691337	2
0	3985	57.555558312996	3
0	3991	57.651759505655	3
0	3999	57.80018375392	3
0	4005	57.801516278403	3
0	4023	58.167482011479	1
0	4029	58.210135592683	1
0	4041	58.408410483143	1
0	4044	58.424443892592	1
0	4053	58.576050785575	1
0	4069	58.976845751062	1
0	4081	59.397031693687	1
0	4084	59.462111427923	1
0	4095	59.602178997619	1
0	4098	59.670973345465	1
0	4100	59.671378977597	2
0	4109	59.773397686392	2
0	4115	59.804797476198	2
0	4117	59.850776607976	3
0	4125	59.903623330806	3
0	4127	59.918345834537	4
0	4129	59.974246601536	5
0	4141	60.14690993951	4
0	4143	60.182269597036	5
0	4149	60.203322925856	5
0	4151	60.254594390119	6
0	4159	60.326198921918	6
0	4161	60.339056945646	7
0	4163	60.364458083481	8
0	4185	60.759221410237	5
0	4187	60.769518246609	6
0	4193	60.821626128717	6
0	4205	61.019815162828	5
0	4213	61.104028793112	5
0	4229	61.46492289361	3
0	4237	61.507022223415	3
0	4253	61.831018520105	1
0	4261	61.98654795614	1
0	4275	62.223586714201	1
0	4278	62.276582872128	1
0	4289	62.425325847562	1
0	4292	62.469840781503	1
0	4296	62.510359069737	2
0	4303	62.561358153122	2
0	4305	62.569816102298	3
0	4307	62.605745492811	4
0	4313	62.658042258177	4
0	4321	62.807305474596	4
0	4327	62.83373252101	4
0	4341	63.094389701242	3
0	4343	63.108602252381	4
0	4349	63.147952493493	4
0	4351	63.153443230748	5
0	4367	63.458929208649	3
0	4375	63.588243994529	3
0	4377	63.589648653653	4
0	4379	63.590797978674	5
0	4385	63.667040347095	5
0	4393	63.814260762894	5
0	4399	63.850584984784	5
0	4401	63.86647830275	6
0	4415	64.080916849201	5
0	4417	64.089203076493	6
0	4419	64.118054347528	7
0	4425	64.127441802256	7
0	4431	64.240579679016	7
0	4439	64.352068421207	7
0	4447	64.518364999274	7
0	4453	64.546517401521	7
0	4455	64.603106855684	8
0	4461	64.657672627161	8
0	4469	64.797159536287	8
0	4475	64.878661369377	8
0	4487	65.055623351698	7
0	4499	65.252629108257	6
0	4503	65.300276966517	7
0	4513	65.430121530077	6
0	4515	65.440274938471	7
0	4517	65.471790941343	8
0	4521	65.501381128668	9
0	4523	65.51547791711	10
0	4529	65.605110837612	10
0	4531	65.610807490859	11
0	4537	65.675524961263	11
0	4541	65.711421093101	12
0	4547	65.7783513803	12
0	4549	65.808748536223	13
0	4555	65.870092445182	13
0	4563	65.930998890714	13
0	4565	66.005357209892	14
0	4573	66.120331348667	14
0	4579	66.178673725771	14
0	4587	66.297623350904	14
0	4599	66.489107576668	13
0	4601	66.522447910506	14
0	4607	66.57926495888	14
0	4613	66.627056757631	14
0	4621	66.802428222133	14
0	4623	66.822413775925	15
0	4631	66.893614582487	15
0	4641	67.04898913269	14
0	4643	67.058022857098	15
0	4645	67.063875646993	16
0	4653	67.171768337843	16
0	4661	67.291169674903	16
0	4663	67.314311772099	17
0	4673	67.465133295262	16
0	4685	67.653045138683	15
0	4693	67.803286418054	15
0	4701	67.917655480113	15
0	4707	67.947687988142	15
0	4709	67.967334176732	16
0	4711	68.014144822055	17
0	4713	68.021386733066	18
0	4721	68.109962797669	18
0	4723	68.110936338603	19
0	4729	68.142794723391	19
0	4741	68.365403122335	18
0	4743	68.411742125089	19
0	4749	68.426067427227	19
0	4751	68.448014243316	20
0	4759	68.599060403438	20
0	4765	68.660652331816	20
0	4779	68.919897192694	19
0	4781	68.924460997644	20
0	4791	69.050050346078	19
0	4799	69.210892130987	19
0	4805	69.278387228352	19
0	4809	69.286395113946	20
0	4815	69.349788326595	20
0	4817	69.422942860508	21
0	4833	69.637252830551	19
0	4835	69.673897959734	20
0	4843	69.740921147392	20
0	4849	69.827087896572	20
0	4853	69.880628331681	21
0	4869	70.201109214642	19
0	4871	70.220238819232	20
0	4879	70.323963328642	20
0	4885	70.388454177759	20
0	4887	70.392054460734	21
0	4899	70.545139302628	20
0	4901	70.60142182281	21
0	4909	70.682711658929	21
0	4915	70.754050087209	21
0	4917	70.771469603246	22
0	4923	70.848294937433	22
0	4925	70.863823495983	23
0	4933	70.978203033895	23
0	4941	71.083031944391	23
0	4943	71.11554903144	24
0	4949	71.19303326939	24
0	4951	71.206828592583	25
0	4957	71.246234349778	25
0	4961	71.296103583065	26
0	4963	71.312004784745	27
0	4979	71.6252877337	25
0	4985	71.642707605358	25
0	4987	71.663426123583	26
0	4989	71.677284805725	27
0	5003	71.911608798734	26
0	5009	71.998102609677	26
0	5015	72.076586311636	26
0	5019	72.086266058867	27
0	5025	72.147314343367	27
0	5037	72.388715986418	26
0	5049	72.60245815546	25
0	5051	72.611119854905	26
0	5057	72.672480275879	26
0	5069	72.833613475791	25
0	5077	72.962409673299	25
0	5089	73.172073300651	24
0	5091	73.222993549338	25
0	5097	73.232805501601	25
0	5109	73.467192465681	24
0	5113	73.522758356997	25
0	5123	73.639884726492	24
0	5127	73.703982081018	25
0	5133	73.824253459401	25
0	5141	73.911050457603	25
0	5147	73.950758552605	25
0	5153	74.076722669667	25
0	5161	74.218101002621	25
0	5163	74.220845212664	26
0	5171	74.321922128974	26
0	5181	74.453374338782	25
0	5185	74.480820690982	26
0	5195	74.62647671214	25
0	5197	74.643976216962	26
0	5199	74.644957660602	27
0	5207	74.804113272881	27
0	5213	74.840971566842	27
0	5231	75.160797064519	25
0	5233	75.18730637466	26
0	5239	75.248580919146	26
0	5243	75.318583482758	27
0	5249	75.407983623026	27
0	5267	75.715291145305	25
0	5279	75.91028883649	24
0	5285	75.991890692886	24
0	5291	76.052996449015	24
0	5293	76.063251638315	25
0	5311	76.366645895555	23
0	5317	76.463846984661	23
0	5325	76.549590494922	23
0	5337	76.748384440406	22
0	5345	76.920291371585	22
0	5351	76.937445234322	22
0	5363	77.176963213261	21
0	5389	77.665313112296	17
0	5401	77.834336607772	16
0	5403	77.843219846037	17
0	5405	77.860585502358	18
0	5407	77.870507655006	19
0	5415	77.969635605582	19
0	5421	78.07004072297	19
0	5425	78.120862668375	20
0	5441	78.419040634108	18
0	5446	78.425517203387	18
0	5461	78.701577648955	17
0	5467	78.756748010214	17
0	5469	78.816056169947	18
0	5475	78.845989008189	18
0	5483	78.976072750935	18
0	5495	79.165145666378	17
0	5503	79.300717517763	17
0	5505	79.304104703287	18
0	5511	79.340775218666	18
0	5527	79.660151405934	16
0	5529	79.672908763314	17
0	5533	79.716816461873	18
0	5539	79.775493342541	18
0	5541	79.819608823614	19
0	5547	79.869329752248	19
0	5549	79.870976080646	20
0	5557	79.946872558071	20
0	5559	79.967357784786	21
0	5571	80.154021831804	20
0	5573	80.205314530987	21
0	5581	80.282160788726	21
0	5597	80.547079614949	19
0	5603	80.661107502641	19
0	5605	80.671600777374	20
0	5613	80.76555097596	20
0	5629	81.056142936326	18
0	5631	81.06651001999	19
0	5643	81.270139438717	18
0	5647	81.27979356662	19
0	5653	81.340336944784	19
0	5655	81.346096236466	20
0	5657	81.385652796506	21
0	5659	81.394703543521	22
0	5661	81.421197037285	23
0	5667	81.448269476359	23
0	5675	81.543581730186	23
0	5687	81.726535945772	22
0	5689	81.729899337864	23
0	5691	81.803791339858	24
0	5693	81.805364252235	25
0	5699	81.877328742004	25
0	5707	81.933329579337	25
0	5713	82.03826379593	25
0	5715	82.045313990766	26
0	5719	82.123969899955	27
0	5725	82.152997241467	27
0	5727	82.156297639973	28
0	5729	82.181292721638	29
0	5735	82.268078908627	29
0	5739	82.2972735158	30
0	5749	82.444715738278	29
0	5751	82.458763309974	30
0	5755	82.505960118751	31
0	5757	82.507171043257	32
0	5763	82.574706630274	32
0	5765	82.586978131006	33
0	5787	82.986734478678	30
0	5795	83.083093748307	30
0	5797	83.111151340925	31
0	5817	83.477107552771	28
0	5821	83.523999685498	29
0	5847	83.988027685093	25
0	5849	83.992701175267	26
0	5855	84.045304254843	26
0	5859	84.082420426923	27
0	5861	84.100208102709	28
0	5871	84.278301570198	27
0	5879	84.380123328079	27
0	5891	84.544641670786	26
0	5893	84.612036015208	27
0	5901	84.714207849949	27
0	5927	85.168990235135	23
0	5929	85.214893027884	24
0	5931	85.221646443572	25
0	5937	85.259152637884	25
0	5945	85.412046524955	25
0	5957	85.573912631597	24
0	5959	85.607936353558	25
0	5961	85.615241519273	26
0	5967	85.642872038566	26
0	5975	85.757938297859	26
0	5981	85.866558628975	26
0	5985	85.914479898423	27
0	5991	85.942724569619	27
0	5997	86.043217900525	27
0	6005	86.152837156626	27
0	6017	86.414401249868	26
0	6025	86.487239007171	26
0	6035	86.679612864238	25
0	6043	86.734793076402	25
0	6045	86.803644465206	26
0	6053	86.884542434719	26
0	6059	86.940375113645	26
0	6061	86.974209725515	27
0	6073	87.147121689283	26
0	6079	87.269734910506	26
0	6087	87.403762506704	26
0	6093	87.457352386238	26
0	6097	87.516618128032	27
0	6103	87.561332118292	27
0	6121	87.908396626346	25
0	6133	88.084805365565	24
0	6139	88.129929245414	24
0	6151	88.388911859964	23
0	6157	88.439584181354	23
0	6159	88.44429410846	24
0	6167	88.578496082578	24
0	6169	88.604974309912	25
0	6175	88.664591499052	25
0	6179	88.70744225947	26
0	6195	88.984356707754	24
0	6207	89.15307853663	23
0	6209	89.182815889421	24
0	6231	89.606117469054	21
0	6237	89.654205291484	21
0	6255	90.001490862074	19
0	6263	90.120939856425	19
0	6279	90.356273333232	17
0	6291	90.583644049901	16
0	6293	90.618820788444	17
0	6299	90.631724638762	17
0	6323	91.114696663559	14
0	6329	91.142343935213	14
0	6331	91.171034844751	15
0	6333	91.196946070339	16
0	6335	91.208140524453	17
0	6341	91.275378814657	17
0	6359	91.576875641876	15
0	6371	91.798997060196	14
0	6377	91.825578715098	14
0	6379	91.869912154698	15
0	6387	91.986955727699	15
0	6393	92.035607641675	15
0	6395	92.041620478588	16
0	6409	92.290183587023	15
0	6415	92.421379895131	15
0	6421	92.433463034757	15
0	6433	92.646933274211	14
0	6441	92.746663166628	14
0	6443	92.778468621147	15
0	6445	92.792718915712	16
0	6451	92.840370497809	16
0	6455	92.887250066973	17
0	6461	92.934137882536	17
0	6463	92.973354011498	18
0	6471	93.111499919483	18
0	6480	93.225479460149	17
0	6483	93.252635039317	18
0	6491	93.411370762286	18
0	6497	93.430227234711	18
0	6501	93.500331785644	19
0	6507	93.559986777332	19
0	6509	93.595118905486	20
0	6515	93.631426789504	20
0	6527	93.848549377639	19
0	6539	94.031302004421	18
0	6541	94.074668489958	19
0	6545	94.101815486601	20
0	6555	94.23590565906	19
0	6559	94.305699413943	20
0	6565	94.386748728661	20
0	6581	94.672491263443	18
0	6585	94.694995512829	19
0	6591	94.795507077686	19
0	6597	94.875029297817	19
0	6609	95.076987748139	18
0	6617	95.150310282007	18
0	6633	95.432001455003	16
0	6635	95.47489263858	17
0	6643	95.613828489275	17
0	6645	95.616321298848	18
0	6657	95.736577033319	17
0	6659	95.752691291202	18
0	6677	96.096785695961	16
0	6679	96.110925007234	17
0	6709	96.629437949537	12
0	6717	96.75250983464	12
0	6719	96.812625299278	13
0	6731	96.936093286883	12
0	6733	96.943443924625	13
0	6739	97.03805409875	13
0	6741	97.072697431499	14
0	6749	97.184143254671	14
0	6751	97.200672555903	15
0	6757	97.260005612729	15
0	6761	97.314045882489	16
0	6771	97.433144027829	15
0	6773	97.447218543372	16
0	6777	97.494752510336	17
0	6783	97.587416370366	17
0	6785	97.597955983357	18
0	6791	97.646213504873	18
0	6809	97.968745113245	16
0	6821	98.194492792321	15
0	6823	98.202011973237	16
0	6845	98.545574312485	13
0	6847	98.54752324178	14
0	6853	98.62668415124	14
0	6871	99.015775160281	12
0	6877	99.047909190568	12
0	6879	99.063982194625	13
0	6887	99.153687496036	13
0	6889	99.18362279633	14
0	6901	99.41069380707	13
0	6907	99.434968350806	13
0	6911	99.487179481247	14
0	6917	99.57390868313	14
0	6923	99.654222360322	14
0	6945	100.026163191412	11
0	6947	100.057860929401	12
0	6951	100.089745034242	13
0	6957	100.150523510654	13
0	6975	100.501429865754	11
0	6981	100.55279842708	11
0	6983	100.555381231523	12
0	6985	100.583938123573	13
0	6997	100.802902795029	12
0	7003	100.873397727167	12
0	7011	100.996706599889	12
0	7017	101.033868175372	12
0	7019	101.066409847088	13
0	7023	101.113096281444	14
0	7039	101.338345568451	12
0	7041	101.412783394591	13
0	7043	101.415471456542	14
0	7055	101.554339183929	13
0	7061	101.652592018201	13
0	7065	101.693164652588	14
0	7071	101.733144179836	14
0	7083	101.991055492915	13
0	7105	102.332547983158	10
0	7117	102.530829241185	9
0	7119	102.549290828476	10
0	7121	102.554282388719	11
0	7133	102.786034994976	10
0	7135	102.815290055095	11
0	7141	102.855328208241	11
0	7145	102.914411730281	12
0	7161	103.134444662325	10
0	7163	103.145496249985	11
0	7165	103.217332833506	12
0	7171	103.260176936385	12
0	7179	103.331640355123	12
0	7185	103.466385237492	12
0	7189	103.515296078554	13
0	7199	103.629400411979	12
0	7203	103.704921593755	13
0	7209	103.802309452903	13
0	7227	104.091821214605	11
0	7233	104.215791022667	11
0	7249	104.439155007777	9
0	7251	104.462086724941	10
0	7259	104.575132444772	10
0	7261	104.616941610666	11
0	7269	104.718836928774	11
0	7279	104.831612972131	10
0	7283	104.911100255738	11
0	7295	105.122490937203	10
0	7301	105.154330238809	10
0	7307	105.232785908501	10
0	7309	105.248834319237	11
0	7313	105.282060381595	12
0	7323	105.476065202583	11
0	7325	105.479135379884	12
0	7333	105.579936733932	12
0	7341	105.70384038467	12
0	7347	105.739456962826	12
0	7349	105.740248497477	13
0	7351	105.801907806329	14
0	7357	105.848537508973	14
0	7359	105.851020829748	15
0	7367	105.926637454527	15
0	7369	106.008296723412	16
0	7385	106.263544372767	14
0	7389	106.308353169605	15
0	7391	106.317728708366	16
0	7397	106.387586808974	16
0	7403	106.439664695461	16
0	7405	106.456344271273	17
0	7407	106.45880563568	18
0	7411	106.514232483021	19
0	7417	106.556180415368	19
0	7429	106.792809441753	18
0	7437	106.890156696118	18
0	7439	106.891011497983	19
0	7441	106.923732536116	20
0	7461	107.270671919994	17
0	7465	107.294212506644	18
0	7471	107.411619520323	18
0	7473	107.423915777012	19
0	7479	107.434387004355	19
0	7483	107.520458475106	20
0	7489	107.554675944268	20
0	7495	107.673508860297	20
0	7503	107.75096053909	20
0	7509	107.86242163939	20
0	7517	107.991210663301	20
0	7535	108.288531497249	18
0	7541	108.337775634887	18
0	7543	108.338046322345	19
0	7545	108.363804808979	20
0	7551	108.467989255461	20
0	7559	108.528660496385	20
0	7561	108.620387676076	21
0	7583	108.97823784866	18
0	7589	109.067090719893	18
0	7601	109.246558031293	17
0	7619	109.575622914319	15
0	7631	109.82188734126	14
0	7633	109.823588903633	15
0	7645	109.933635756681	14
0	7651	110.052867334103	14
0	7655	110.110968199649	15
0	7665	110.278996439657	14
0	7673	110.394543912532	14
0	7679	110.465839560445	14
0	7687	110.570422089724	14
0	7689	110.611063376399	15
0	7691	110.614016557515	16
0	7703	110.770482212585	15
0	7715	111.02247108197	14
0	7721	111.032701260071	14
0	7725	111.110889702381	15
0	7731	111.169235719612	15
0	7757	111.641875239298	11
0	7761	111.715262236	12
0	7767	111.763567538426	12
0	7775	111.881970312061	12
0	7785	112.046305635582	11
0	7787	112.055834083869	12
0	7791	112.117639321583	13
0	7797	112.143485246455	13
0	7805	112.318830058283	13
0	7811	112.371644457355	13
0	7817	112.449105830991	13
0	7825	112.546735033288	13
0	7837	112.765006422217	12
0	7849	112.983008466933	11
0	7861	113.195123912618	10
0	7869	113.291573888794	10
0	7875	113.331368728259	10
0	7877	113.345693598638	11
0	7879	113.397516383448	12
0	7901	113.791662251911	9
0	7907	113.870330563457	9
0	7919	114.075735811843	8
0	7927	114.172940708691	8
0	7933	114.242801065386	8
0	7937	114.29050084048	9
0	7953	114.546052612146	7
0	7955	114.624169491145	8
0	7963	114.702122994028	8
0	7965	114.715010858632	9
0	7981	114.971804121502	7
0	7989	115.085965673854	7
0	7999	115.263101005786	6
0	8003	115.296945119068	7
0	8023	115.642046132004	4
0	8025	115.646438855417	5
0	8039	115.898740601552	4
0	8041	115.911081548703	5
0	8043	115.914751455731	6
0	8049	115.926004450369	6
0	8051	115.945214007984	7
0	8053	115.98326510284	8
0	8059	116.032552979677	8
0	8061	116.060860223262	9
0	8079	116.364813382275	7