version 3
run General-0-20250526-12:25:18-14304
attr configname General
attr datetime 20250526-12:25:18
attr datetimef 20250526-122518
attr experiment General
attr inifile omnetpp.ini
attr iterationvars ""
attr iterationvarsd ""
attr iterationvarsf ""
attr measurement ""
attr network Network
attr processid 14304
attr repetition 0
attr replication #0
attr resultdir results
attr runnumber 0
attr seedset 0
config network Network
config sim-time-limit 200s
config "Network.node[{0, 1, 2, 3, 4, 6, 7}].app.interArrivalTime" exponential(4)
config "Network.node[{0, 1, 2, 3, 4, 6, 7}].app.packetByteSize" 125000
config "Network.node[{0, 1, 2, 3, 4, 6, 7}].app.destination" 5
config Network.node[{5}].net.interFeedBackTime exponential(3)

vector 0 Network.node[7].lnk[0] "Lnk use" ETV
vector 1 Network.node[7].lnk[0] "Buffer Size" ETV
vector 2 Network.node[6].lnk[1] "Lnk use" ETV
vector 3 Network.node[6].lnk[0] "Lnk use" ETV
vector 4 Network.node[6].lnk[0] "Buffer Size" ETV
vector 5 Network.node[5].lnk[1] "Lnk use" ETV
vector 6 Network.node[5].app "Delay Source 7" ETV
vector 7 Network.node[5].app "HopCount Source 7" ETV
vector 8 Network.node[5].lnk[0] "Lnk use" ETV
vector 9 Network.node[5].lnk[0] "Buffer Size" ETV
vector 10 Network.node[4].lnk[1] "Lnk use" ETV
vector 11 Network.node[4].lnk[0] "Lnk use" ETV
vector 12 Network.node[4].lnk[0] "Buffer Size" ETV
vector 13 Network.node[3].lnk[1] "Lnk use" ETV
vector 14 Network.node[3].lnk[0] "Lnk use" ETV
vector 15 Network.node[3].lnk[0] "Buffer Size" ETV
vector 16 Network.node[2].lnk[1] "Lnk use" ETV
vector 17 Network.node[2].lnk[0] "Lnk use" ETV
vector 18 Network.node[2].lnk[0] "Buffer Size" ETV
vector 19 Network.node[1].lnk[1] "Lnk use" ETV
vector 20 Network.node[1].lnk[0] "Lnk use" ETV
vector 21 Network.node[1].lnk[0] "Buffer Size" ETV
vector 22 Network.node[0].lnk[1] "Lnk use" ETV
vector 23 Network.node[0].lnk[0] "Lnk use" ETV
vector 24 Network.node[0].lnk[0] "Buffer Size" ETV
vector 25 Network.node[7].lnk[1] "Lnk use" ETV
vector 26 Network.node[5].app "Delay Source 6" ETV
vector 27 Network.node[5].app "HopCount Source 6" ETV
vector 28 Network.node[5].app "Delay Source 0" ETV
vector 29 Network.node[5].app "HopCount Source 0" ETV
vector 30 Network.node[5].app "Delay Source 4" ETV
vector 31 Network.node[5].app "HopCount Source 4" ETV
vector 32 Network.node[5].app "Delay Source 1" ETV
vector 33 Network.node[5].app "HopCount Source 1" ETV
vector 34 Network.node[7].lnk[1] "Buffer Size" ETV
vector 35 Network.node[5].app "Delay Source 2" ETV
vector 36 Network.node[5].app "HopCount Source 2" ETV
vector 37 Network.node[0].lnk[1] "Buffer Size" ETV
vector 38 Network.node[1].lnk[1] "Buffer Size" ETV
vector 39 Network.node[2].lnk[1] "Buffer Size" ETV
vector 40 Network.node[3].lnk[1] "Buffer Size" ETV
vector 41 Network.node[4].lnk[1] "Buffer Size" ETV
vector 42 Network.node[5].app "Delay Source 3" ETV
vector 43 Network.node[5].app "HopCount Source 3" ETV
vector 44 Network.node[5].lnk[1] "Buffer Size" ETV
vector 45 Network.node[6].lnk[1] "Buffer Size" ETV
0	3	0.233538676372	1
0	71	4.594341553936	1
0	187	8.908525705573	1
0	228	9.908525705573	1
0	256	10.908525705573	1
0	285	11.908525705573	1
0	328	12.908525705573	1
0	419	13.908525705573	1
0	460	14.908525705573	1
0	482	15.908525705573	1
0	514	16.908525705573	1
0	541	17.908525705573	1
0	579	18.908525705573	1
0	613	19.908525705573	1
0	662	20.908525705573	1
0	670	20.909525705573	1
0	714	21.910525705573	1
0	754	22.910525705573	1
0	762	22.911525705573	1
0	809	23.912525705573	1
0	843	24.57585255913	1
0	944	24.912525705573	1
0	980	25.912525705573	1
0	994	25.970267495211	1
0	996	26.237601154997	1
0	1023	26.912525705573	1
0	1030	26.913525705573	1
0	1039	27.237601154997	1
0	1223	28.849346599411	1
0	1243	29.252164605653	1
0	1354	29.335756067749	1
0	1386	30.252164605653	1
0	1396	30.253164605653	1
0	1399	30.254164605653	1
0	1451	31.923286798218	1
0	1492	32.167346099274	1
0	1575	32.176746099274	1
0	1616	33.678800471085	1
0	1664	33.960584329729	1
0	1747	33.969984329729	1
0	1825	35.684181549953	1
0	1840	35.685181549953	1
0	1894	35.692581549953	1
0	1940	37.476778805072	1
0	2022	38.980918952606	1
0	2037	38.981918952606	1
0	2091	38.989318952606	1
0	2131	39.54319715066	1
0	2146	39.54419715066	1
0	2200	39.55159715066	1
0	2336	40.881809236522	1
0	2350	41.238940295075	1
0	2353	41.712115331022	1
0	2358	41.713115331022	1
0	2362	41.714115331022	1
0	2410	42.811390524291	1
0	2420	43.227963188153	1
0	2467	43.681593915836	1
0	2484	43.682593915836	1
0	2500	43.683593915836	1
0	2528	43.688993915836	1
0	2583	44.004499240304	1
0	2599	44.005499240304	1
0	2609	44.006499240304	1
0	2617	44.007499240304	1
0	2637	44.010899240304	1
0	2738	46.605674362264	1
0	2752	46.834874544957	1
0	2793	47.177978480361	1
0	2804	47.178978480361	1
0	2811	47.179978480361	1
0	2820	47.181978480361	1
0	2869	47.890280018813	1
0	2905	48.054220080163	1
0	2917	48.055220080163	1
0	2928	48.056220080163	1
0	2946	48.058220080163	1
0	2983	48.890280018813	1
0	3040	49.659414111413	1
0	3052	49.660414111413	1
0	3063	49.661414111413	1
0	3086	49.663414111413	1
0	3118	50.32253795946	1
0	3150	50.50024513685	1
0	3162	50.50124513685	1
0	3173	50.50224513685	1
0	3196	50.50424513685	1
0	3209	50.626493126089	1
0	3260	51.019627505288	1
0	3272	51.020627505288	1
0	3283	51.021627505288	1
0	3306	51.023627505288	1
0	3350	51.370493734665	1
0	3362	51.371493734665	1
0	3373	51.372493734665	1
0	3396	51.374493734665	1
0	3452	52.828905060892	1
0	3480	53.828905060892	1
0	3495	54.229994255743	1
0	3527	54.739998639265	1
0	3537	54.740998639265	1
0	3550	54.741998639265	1
0	3563	54.742998639265	1
0	3591	54.744998639265	1
0	3617	54.828905060892	1
0	3637	55.828905060892	1
0	3690	57.410548238652	1
0	3731	57.9988067819	1
0	3741	57.9998067819	1
0	3754	58.0008067819	1
0	3767	58.0018067819	1
0	3795	58.0038067819	1
0	3820	58.410548238652	1
0	3844	59.410548238652	1
0	3898	61.10030039068	1
0	3924	61.358249879162	1
0	3934	61.359249879162	1
0	3947	61.360249879162	1
0	3960	61.361249879162	1
0	3988	61.363249879162	1
0	4022	62.10030039068	1
0	4047	63.10030039068	1
0	4076	63.255259668349	1
0	4086	63.256259668349	1
0	4099	63.257259668349	1
0	4112	63.258259668349	1
0	4140	63.260259668349	1
0	4209	65.955234620621	1
0	4217	66.178753823151	1
0	4276	68.805568993954	1
0	4360	71.205356540518	1
0	4364	71.55573491176	1
0	4394	72.205356540518	1
0	4412	73.086538707207	1
0	4427	73.205356540518	1
0	4459	74.205356540518	1
0	4487	74.541041521861	1
0	4497	74.542041521861	1
0	4510	74.543041521861	1
0	4523	74.544041521861	1
0	4551	74.546041521861	1
0	4597	75.205356540518	1
0	4624	76.205356540518	1
0	4647	77.205356540518	1
0	4679	78.078610103057	1
0	4689	78.079610103057	1
0	4702	78.080610103057	1
0	4715	78.081610103057	1
0	4743	78.083610103057	1
0	4769	78.205356540518	1
0	4795	79.205356540518	1
0	4823	80.205356540518	1
0	4852	80.300886954398	1
0	4865	80.301886954398	1
0	4878	80.302886954398	1
0	4891	80.303886954398	1
0	4919	80.305886954398	1
0	4956	81.205356540518	1
0	4979	82.205356540518	1
0	4989	83.102185839548	1
0	4996	83.139788842204	1
0	5001	83.205356540518	1
0	5030	84.205356540518	1
0	5051	85.205356540518	1
0	5067	86.205356540518	1
0	5079	87.205356540518	1
0	5088	87.543172482567	1
0	5131	88.248654740427	1
0	5143	88.249654740427	1
0	5154	88.250654740427	1
0	5177	88.252654740427	1
0	5189	88.773243377617	1
0	5256	89.770255110197	1
0	5268	89.771255110197	1
0	5279	89.772255110197	1
0	5302	89.774255110197	1
0	5360	90.941773772939	1
0	5387	91.941773772939	1
0	5405	92.305759545454	1
0	5417	92.941773772939	1
0	5456	93.168157536114	1
0	5468	93.169157536114	1
0	5479	93.170157536114	1
0	5502	93.172157536114	1
0	5533	93.941773772939	1
0	5564	94.026220453638	1
0	5576	94.027220453638	1
0	5587	94.028220453638	1
0	5610	94.030220453638	1
0	5630	94.577376159375	1
0	5642	94.941773772939	1
0	5681	95.539251873401	1
0	5693	95.540251873401	1
0	5704	95.541251873401	1
0	5727	95.543251873401	1
0	5752	95.941773772939	1
0	5779	96.941773772939	1
0	5802	97.941773772939	1
0	5809	98.163739642519	1
0	5821	98.941773772939	1
0	5841	99.941773772939	1
0	5865	100.941773772939	1
0	5889	101.941773772939	1
0	5928	102.330452600984	1
0	5945	102.331452600984	1
0	5957	102.332452600984	1
0	6039	102.70103254307	1
0	6056	102.70203254307	1
0	6068	102.70303254307	1
0	6166	103.760092942892	1
0	6183	103.761092942892	1
0	6195	103.762092942892	1
0	6330	108.006906561576	1
0	6389	108.80285955653	1
0	6405	108.80385955653	1
0	6413	108.80485955653	1
0	6436	109.006906561576	1
0	6480	110.026981552595	1
0	6516	111.026981552595	1
0	6550	112.026981552595	1
0	6593	113.509124857901	1
0	6645	115.556524786239	1
0	6736	117.820464394447	1
0	6770	118.820464394447	1
0	6809	118.895970915683	1
0	6888	119.820464394447	1
0	6927	119.972752563292	1
0	7023	120.820464394447	1
0	7072	121.822464394447	1
0	7108	122.822464394447	1
0	7160	123.210713159259	1
0	7268	123.536354454744	1
0	7371	123.827122718475	1
0	8318	135.171937432433	1
0	8496	138.929760007168	1
0	8584	139.880262252207	1
0	8733	145.007486458478	1
0	8865	146.597495092888	1
0	8966	147.04986812347	1
0	9090	148.618478213735	1
0	9170	149.28097141121	1
0	9187	150.28097141121	1
0	9221	151.28197141121	1
0	9313	154.484574355799	1
0	9475	160.768018730149	1
0	9491	160.769018730149	1
0	9607	162.011856358126	1
0	9622	162.012856358126	1
0	9674	162.230883305764	1
0	9716	162.681273982428	1
0	9731	162.682273982428	1
0	9817	163.274762504805	1
0	9832	163.275762504805	1
0	9905	163.330848916068	1
0	9920	163.331848916068	1
0	10041	163.893405769676	1
0	10056	163.894405769676	1
0	10151	164.920725373098	1
0	10226	166.581284383129	1
0	10271	167.582284383129	1
0	10316	169.071673759043	1
0	10372	170.121498951004	1
0	10383	170.122498951004	1
0	10390	170.123498951004	1
0	10399	170.125498951004	1
0	10510	172.624856589046	1
0	10547	173.035945425289	1
0	10559	173.036945425289	1
0	10570	173.037945425289	1
0	10593	173.039945425289	1
0	10638	173.946860972417	1
0	10672	173.968848840198	1
0	10688	173.969848840198	1
0	10716	173.971848840198	1
0	10770	175.822470803173	1
0	10804	177.14422922872	1
0	10849	177.37863832597	1
0	10865	177.37963832597	1
0	10893	177.38163832597	1
0	10937	178.750744598585	1
0	10985	180.70974353636	1
0	11037	182.741204027107	1
0	11064	183.510249612698	1
0	11076	183.741204027107	1
0	11108	184.741204027107	1
0	11146	185.916965558796	1
0	11164	186.739432468545	1
0	11176	186.949016614556	1
0	11183	187.305633774537	1
0	11214	187.392441327531	1
0	11226	187.393441327531	1
0	11237	187.394441327531	1
0	11260	187.396441327531	1
0	11272	187.544757626199	1
0	11303	187.566658413879	1
0	11315	187.567658413879	1
0	11326	187.568658413879	1
0	11349	187.570658413879	1
0	11362	187.739432468545	1
0	11429	189.573999584949	1
0	11441	189.574999584949	1
0	11452	189.575999584949	1
0	11475	189.577999584949	1
0	11501	189.824347887425	1
0	11518	190.745040015939	1
0	11529	191.722013048757	1
0	11545	191.945182483676	1
0	11552	192.513883990093	1
0	11555	192.613837403344	1
0	11624	195.790940769961	1
0	11675	198.395863697631	1
0	11700	199.395863697631	1
1	3	0.233538676372	1
1	4	0.233538676372	0
1	71	4.594341553936	1
1	72	4.594341553936	0
1	187	8.908525705573	1
1	188	8.908525705573	0
1	228	9.908525705573	1
1	229	9.908525705573	0
1	256	10.908525705573	1
1	257	10.908525705573	0
1	285	11.908525705573	1
1	286	11.908525705573	0
1	328	12.908525705573	1
1	329	12.908525705573	0
1	419	13.908525705573	1
1	420	13.908525705573	0
1	460	14.908525705573	1
1	461	14.908525705573	0
1	482	15.908525705573	1
1	483	15.908525705573	0
1	514	16.908525705573	1
1	515	16.908525705573	0
1	541	17.908525705573	1
1	542	17.908525705573	0
1	579	18.908525705573	1
1	580	18.908525705573	0
1	613	19.908525705573	1
1	614	19.908525705573	0
1	662	20.908525705573	1
1	663	20.908525705573	0
1	670	20.909525705573	1
1	704	21.908525705573	0
1	714	21.910525705573	1
1	715	21.910525705573	0
1	754	22.910525705573	1
1	755	22.910525705573	0
1	762	22.911525705573	1
1	799	23.910525705573	0
1	809	23.912525705573	1
1	810	23.912525705573	0
1	944	24.912525705573	1
1	945	24.912525705573	0
1	980	25.912525705573	1
1	981	25.912525705573	0
1	994	25.970267495211	1
1	1021	26.912525705573	0
1	1023	26.912525705573	1
1	1030	26.913525705573	2
1	1070	27.912525705573	1
1	1223	28.849346599411	2
1	1224	28.912525705573	1
1	1228	28.913525705573	0
1	1354	29.335756067749	1
1	1355	29.335756067749	0
1	1451	31.923286798218	1
1	1452	31.923286798218	0
1	1575	32.176746099274	1
1	1599	32.923286798218	0
1	1747	33.969984329729	1
1	1748	33.969984329729	0
1	1894	35.692581549953	1
1	1895	35.692581549953	0
1	2091	38.989318952606	1
1	2092	38.989318952606	0
1	2200	39.55159715066	1
1	2201	39.55159715066	0
1	2336	40.881809236522	1
1	2337	40.881809236522	0
1	2350	41.238940295075	1
1	2351	41.238940295075	0
1	2410	42.811390524291	1
1	2411	42.811390524291	0
1	2528	43.688993915836	1
1	2541	43.811390524291	0
1	2637	44.010899240304	1
1	2638	44.010899240304	0
1	2752	46.834874544957	1
1	2753	46.834874544957	0
1	2869	47.890280018813	1
1	2870	47.890280018813	0
1	2983	48.890280018813	1
1	2984	48.890280018813	0
1	3118	50.32253795946	1
1	3119	50.32253795946	0
1	3209	50.626493126089	1
1	3316	51.32253795946	0
1	3452	52.828905060892	1
1	3453	52.828905060892	0
1	3480	53.828905060892	1
1	3481	53.828905060892	0
1	3495	54.229994255743	1
1	3615	54.828905060892	0
1	3617	54.828905060892	1
1	3635	55.828905060892	0
1	3637	55.828905060892	1
1	3667	56.828905060892	0
1	3690	57.410548238652	1
1	3695	57.828905060892	0
1	3820	58.410548238652	1
1	3825	58.828905060892	0
1	3844	59.410548238652	1
1	3852	59.828905060892	0
1	3898	61.10030039068	1
1	3899	61.10030039068	0
1	4022	62.10030039068	1
1	4023	62.10030039068	0
1	4047	63.10030039068	1
1	4048	63.10030039068	0
1	4209	65.955234620621	1
1	4210	65.955234620621	0
1	4217	66.178753823151	1
1	4227	66.955234620621	0
1	4276	68.805568993954	1
1	4277	68.805568993954	0
1	4360	71.205356540518	1
1	4361	71.205356540518	0
1	4364	71.55573491176	1
1	4392	72.205356540518	0
1	4394	72.205356540518	1
1	4412	73.086538707207	2
1	4425	73.205356540518	1
1	4427	73.205356540518	2
1	4457	74.205356540518	1
1	4459	74.205356540518	2
1	4595	75.205356540518	1
1	4597	75.205356540518	2
1	4622	76.205356540518	1
1	4624	76.205356540518	2
1	4645	77.205356540518	1
1	4647	77.205356540518	2
1	4767	78.205356540518	1
1	4769	78.205356540518	2
1	4793	79.205356540518	1
1	4795	79.205356540518	2
1	4821	80.205356540518	1
1	4823	80.205356540518	2
1	4954	81.205356540518	1
1	4956	81.205356540518	2
1	4977	82.205356540518	1
1	4979	82.205356540518	2
1	4989	83.102185839548	3
1	4996	83.139788842204	4
1	4999	83.205356540518	3
1	5001	83.205356540518	4
1	5028	84.205356540518	3
1	5030	84.205356540518	4
1	5049	85.205356540518	3
1	5051	85.205356540518	4
1	5065	86.205356540518	3
1	5067	86.205356540518	4
1	5077	87.205356540518	3
1	5079	87.205356540518	4
1	5088	87.543172482567	5
1	5093	88.205356540518	4
1	5189	88.773243377617	5
1	5212	89.205356540518	4
1	5330	90.205356540518	3
1	5360	90.941773772939	4
1	5365	91.205356540518	3
1	5387	91.941773772939	4
1	5399	92.205356540518	3
1	5405	92.305759545454	4
1	5417	92.941773772939	5
1	5512	93.205356540518	4
1	5533	93.941773772939	5
1	5624	94.205356540518	4
1	5630	94.577376159375	5
1	5642	94.941773772939	6
1	5647	95.205356540518	5
1	5752	95.941773772939	6
1	5756	96.205356540518	5
1	5779	96.941773772939	6
1	5784	97.205356540518	5
1	5802	97.941773772939	6
1	5809	98.163739642519	7
1	5810	98.205356540518	6
1	5821	98.941773772939	7
1	5830	99.205356540518	6
1	5841	99.941773772939	7
1	5854	100.205356540518	6
1	5865	100.941773772939	7
1	5870	101.205356540518	6
1	5889	101.941773772939	7
1	5890	102.205356540518	6
1	6123	103.205356540518	5
1	6233	104.205356540518	4
1	6257	105.205356540518	3
1	6281	106.205356540518	2
1	6302	107.205356540518	1
1	6330	108.006906561576	2
1	6335	108.205356540518	1
1	6436	109.006906561576	2
1	6442	109.205356540518	1
1	6480	110.026981552595	2
1	6489	110.205356540518	1
1	6516	111.026981552595	2
1	6522	111.205356540518	1
1	6550	112.026981552595	2
1	6559	112.205356540518	1
1	6586	113.205356540518	0
1	6593	113.509124857901	1
1	6612	114.205356540518	0
1	6645	115.556524786239	1
1	6646	115.556524786239	0
1	6736	117.820464394447	1
1	6737	117.820464394447	0
1	6770	118.820464394447	1
1	6771	118.820464394447	0
1	6888	119.820464394447	1
1	6889	119.820464394447	0
1	7023	120.820464394447	1
1	7024	120.820464394447	0
1	7072	121.822464394447	1
1	7073	121.822464394447	0
1	7108	122.822464394447	1
1	7109	122.822464394447	0
1	8584	139.880262252207	1
1	8585	139.880262252207	0
1	9170	149.28097141121	1
1	9171	149.28097141121	0
1	9187	150.28097141121	1
1	9188	150.28097141121	0
1	9221	151.28197141121	1
1	9222	151.28197141121	0
1	9313	154.484574355799	1
1	9314	154.484574355799	0
1	9674	162.230883305764	1
1	9675	162.230883305764	0
1	10151	164.920725373098	1
1	10152	164.920725373098	0
1	10226	166.581284383129	1
1	10227	166.581284383129	0
1	10271	167.582284383129	1
1	10272	167.582284383129	0
1	10316	169.071673759043	1
1	10317	169.071673759043	0
1	10510	172.624856589046	1
1	10511	172.624856589046	0
1	10638	173.946860972417	1
1	10639	173.946860972417	0
1	10770	175.822470803173	1
1	10771	175.822470803173	0
1	10804	177.14422922872	1
1	10805	177.14422922872	0
1	10937	178.750744598585	1
1	10938	178.750744598585	0
1	10985	180.70974353636	1
1	10986	180.70974353636	0
1	11037	182.741204027107	1
1	11038	182.741204027107	0
1	11064	183.510249612698	1
1	11074	183.741204027107	0
1	11076	183.741204027107	1
1	11106	184.741204027107	0
1	11108	184.741204027107	1
1	11135	185.741204027107	0
1	11146	185.916965558796	1
1	11164	186.739432468545	2
1	11165	186.741204027107	1
1	11176	186.949016614556	2
1	11183	187.305633774537	3
1	11272	187.544757626199	4
1	11362	187.739432468545	5
1	11363	187.741204027107	4
1	11379	188.741204027107	3
1	11485	189.741204027107	2
1	11501	189.824347887425	3
1	11506	190.741204027107	2
1	11518	190.745040015939	3
1	11529	191.722013048757	4
1	11530	191.741204027107	3
1	11545	191.945182483676	4
1	11552	192.513883990093	5
1	11555	192.613837403344	6
1	11556	192.741204027107	5
1	11568	193.741204027107	4
1	11590	194.741204027107	3
1	11613	195.741204027107	2
1	11624	195.790940769961	3
1	11629	196.741204027107	2
1	11652	197.741204027107	1
1	11675	198.395863697631	2
1	11676	198.741204027107	1
1	11700	199.395863697631	2
1	11701	199.741204027107	1
2	6	1.233638676372	1
2	83	5.594441553936	1
2	230	9.908625705573	1
2	258	10.908625705573	1
2	287	11.908625705573	1
2	330	12.908625705573	1
2	421	13.908625705573	1
2	462	14.908625705573	1
2	484	15.908625705573	1
2	516	16.908625705573	1
2	543	17.908625705573	1
2	581	18.908625705573	1
2	615	19.908625705573	1
2	664	20.908625705573	1
2	705	21.908625705573	1
2	709	21.909625705573	1
2	756	22.910625705573	1
2	800	23.910625705573	1
2	804	23.911625705573	1
2	832	24.57475255913	1
2	946	24.912625705573	1
2	951	25.237501154997	1
2	962	25.685285797528	1
2	982	25.912625705573	1
2	1024	26.912625705573	1
2	1071	27.912625705573	1
2	1089	28.252064605653	1
2	1115	28.833176714822	1
2	1133	28.838846599411	1
2	1225	28.912625705573	1
2	1229	28.913625705573	1
2	1232	28.914625705573	1
2	1264	29.325256067749	1
2	1357	29.336856067749	1
2	1481	32.166246099274	1
2	1589	32.678700471085	1
2	1600	32.923386798218	1
2	1605	32.924386798218	1
2	1649	33.959484329729	1
2	1750	33.971084329729	1
2	1809	35.683081549953	1
2	1821	35.684081549953	1
2	1897	35.693681549953	1
2	1913	36.476678805072	1
2	2006	38.979818952606	1
2	2018	38.980818952606	1
2	2094	38.990418952606	1
2	2115	39.54209715066	1
2	2127	39.54309715066	1
2	2203	39.55269715066	1
2	2238	40.712015331022	1
2	2264	40.872309236522	1
2	2274	40.873309236522	1
2	2339	40.882909236522	1
2	2378	42.227863188153	1
2	2381	42.239040295075	1
2	2451	43.680493915836	1
2	2463	43.681493915836	1
2	2482	43.682493915836	1
2	2542	43.811490524291	1
2	2547	43.812490524291	1
2	2569	44.003399240304	1
2	2581	44.004399240304	1
2	2595	44.005399240304	1
2	2607	44.006399240304	1
2	2640	44.011999240304	1
2	2709	45.605574362264	1
2	2779	47.176878480361	1
2	2791	47.177878480361	1
2	2802	47.178878480361	1
2	2817	47.180878480361	1
2	2857	47.834974544957	1
2	2891	48.053120080163	1
2	2903	48.054120080163	1
2	2915	48.055120080163	1
2	2939	48.057120080163	1
2	2985	48.890380018813	1
2	3026	49.658314111413	1
2	3038	49.659314111413	1
2	3050	49.660314111413	1
2	3075	49.662314111413	1
2	3105	49.890380018813	1
2	3136	50.49914513685	1
2	3148	50.50014513685	1
2	3160	50.50114513685	1
2	3185	50.50314513685	1
2	3246	51.018527505288	1
2	3258	51.019527505288	1
2	3270	51.020527505288	1
2	3295	51.022527505288	1
2	3317	51.32263795946	1
2	3336	51.369393734665	1
2	3348	51.370393734665	1
2	3360	51.371393734665	1
2	3385	51.373393734665	1
2	3434	52.32263795946	1
2	3482	53.829005060892	1
2	3519	54.738898639265	1
2	3525	54.739898639265	1
2	3535	54.740898639265	1
2	3548	54.741898639265	1
2	3578	54.743898639265	1
2	3618	54.829005060892	1
2	3638	55.829005060892	1
2	3668	56.829005060892	1
2	3696	57.829005060892	1
2	3723	57.9977067819	1
2	3729	57.9987067819	1
2	3739	57.9997067819	1
2	3752	58.0007067819	1
2	3782	58.0027067819	1
2	3826	58.829005060892	1
2	3853	59.829005060892	1
2	3880	60.829005060892	1
2	3916	61.357149879162	1
2	3922	61.358149879162	1
2	3932	61.359149879162	1
2	3945	61.360149879162	1
2	3975	61.362149879162	1
2	4024	62.10040039068	1
2	4049	63.10040039068	1
2	4068	63.254159668349	1
2	4074	63.255159668349	1
2	4084	63.256159668349	1
2	4097	63.257159668349	1
2	4127	63.259159668349	1
2	4176	64.10040039068	1
2	4228	66.955334620621	1
2	4255	67.955334620621	1
2	4305	69.805668993954	1
2	4395	72.205456540518	1
2	4428	73.205456540518	1
2	4460	74.205456540518	1
2	4479	74.539941521861	1
2	4485	74.540941521861	1
2	4495	74.541941521861	1
2	4508	74.542941521861	1
2	4538	74.544941521861	1
2	4598	75.205456540518	1
2	4625	76.205456540518	1
2	4648	77.205456540518	1
2	4671	78.077510103057	1
2	4677	78.078510103057	1
2	4687	78.079510103057	1
2	4700	78.080510103057	1
2	4730	78.082510103057	1
2	4770	78.205456540518	1
2	4796	79.205456540518	1
2	4824	80.205456540518	1
2	4843	80.299786954398	1
2	4849	80.300786954398	1
2	4863	80.301786954398	1
2	4876	80.302786954398	1
2	4906	80.304786954398	1
2	4957	81.205456540518	1
2	4980	82.205456540518	1
2	5002	83.205456540518	1
2	5031	84.205456540518	1
2	5052	85.205456540518	1
2	5068	86.205456540518	1
2	5080	87.205456540518	1
2	5094	88.205456540518	1
2	5117	88.247554740427	1
2	5129	88.248554740427	1
2	5141	88.249554740427	1
2	5166	88.251554740427	1
2	5213	89.205456540518	1
2	5242	89.769155110197	1
2	5254	89.770155110197	1
2	5266	89.771155110197	1
2	5291	89.773155110197	1
2	5331	90.205456540518	1
2	5366	91.205456540518	1
2	5400	92.205456540518	1
2	5442	93.167057536114	1
2	5454	93.168057536114	1
2	5466	93.169057536114	1
2	5491	93.171057536114	1
2	5513	93.205456540518	1
2	5550	94.025120453638	1
2	5562	94.026120453638	1
2	5574	94.027120453638	1
2	5599	94.029120453638	1
2	5625	94.205456540518	1
2	5648	95.205456540518	1
2	5667	95.538151873401	1
2	5679	95.539151873401	1
2	5691	95.540151873401	1
2	5716	95.542151873401	1
2	5757	96.205456540518	1
2	5785	97.205456540518	1
2	5811	98.205456540518	1
2	5831	99.205456540518	1
2	5855	100.205456540518	1
2	5871	101.205456540518	1
2	5891	102.205456540518	1
2	5914	102.329352600984	1
2	5926	102.330352600984	1
2	5941	102.331352600984	1
2	6025	102.69993254307	1
2	6037	102.70093254307	1
2	6052	102.70193254307	1
2	6124	103.205456540518	1
2	6152	103.758992942892	1
2	6164	103.759992942892	1
2	6179	103.760992942892	1
2	6234	104.205456540518	1
2	6258	105.205456540518	1
2	6282	106.205456540518	1
2	6303	107.205456540518	1
2	6336	108.205456540518	1
2	6375	108.80175955653	1
2	6387	108.80275955653	1
2	6401	108.80375955653	1
2	6443	109.205456540518	1
2	6490	110.205456540518	1
2	6523	111.205456540518	1
2	6560	112.205456540518	1
2	6587	113.205456540518	1
2	6613	114.205456540518	1
2	6639	115.205456540518	1
2	6677	116.556624786239	1
2	6772	118.820564394447	1
2	6795	118.894870915683	1
2	6890	119.820564394447	1
2	6913	119.971652563292	1
2	7025	120.820564394447	1
2	7066	121.820564394447	1
2	7110	122.822564394447	1
2	7146	123.209613159259	1
2	7254	123.535254454744	1
2	7338	123.822564394447	1
2	7357	123.826022718475	1
2	8304	135.170837432433	1
2	8482	138.928660007168	1
2	8616	140.880362252207	1
2	8719	145.006386458478	1
2	8851	146.596395092888	1
2	8952	147.04876812347	1
2	9076	148.617378213735	1
2	9189	150.28107141121	1
2	9211	151.28107141121	1
2	9246	152.28207141121	1
2	9340	155.484674355799	1
2	9459	160.766918730149	1
2	9471	160.767918730149	1
2	9591	162.010756358126	1
2	9603	162.011756358126	1
2	9700	162.680173982428	1
2	9712	162.681173982428	1
2	9781	163.230983305764	1
2	9801	163.273662504805	1
2	9813	163.274662504805	1
2	9889	163.329748916068	1
2	9901	163.330748916068	1
2	10025	163.892305769676	1
2	10037	163.893305769676	1
2	10207	165.920825373098	1
2	10261	167.581384383129	1
2	10306	168.582384383129	1
2	10339	170.071773759043	1
2	10358	170.120398951004	1
2	10370	170.121398951004	1
2	10381	170.122398951004	1
2	10396	170.124398951004	1
2	10533	173.034845425289	1
2	10545	173.035845425289	1
2	10557	173.036845425289	1
2	10582	173.038845425289	1
2	10627	173.624956589046	1
2	10656	173.967748840198	1
2	10668	173.968748840198	1
2	10705	173.970748840198	1
2	10751	174.946960972417	1
2	10797	176.822570803173	1
2	10833	177.37753832597	1
2	10845	177.37853832597	1
2	10882	177.38053832597	1
2	10917	178.14432922872	1
2	10965	179.750844598585	1
2	11001	181.70984353636	1
2	11077	183.741304027107	1
2	11109	184.741304027107	1
2	11136	185.741304027107	1
2	11166	186.741304027107	1
2	11200	187.391341327531	1
2	11212	187.392341327531	1
2	11224	187.393341327531	1
2	11249	187.395341327531	1
2	11289	187.565558413879	1
2	11301	187.566558413879	1
2	11313	187.567558413879	1
2	11338	187.569558413879	1
2	11364	187.741304027107	1
2	11380	188.741304027107	1
2	11415	189.572899584949	1
2	11427	189.573899584949	1
2	11439	189.574899584949	1
2	11464	189.576899584949	1
2	11486	189.741304027107	1
2	11507	190.741304027107	1
2	11531	191.741304027107	1
2	11557	192.741304027107	1
2	11569	193.741304027107	1
2	11591	194.741304027107	1
2	11614	195.741304027107	1
2	11630	196.741304027107	1
2	11653	197.741304027107	1
2	11677	198.741304027107	1
2	11702	199.741304027107	1
3	8	1.233638676372	1
3	12	1.41263655655	1
3	20	2.686061119917	1
3	80	5.28384651292	1
3	85	5.594441553936	1
3	138	7.899376781804	1
3	213	9.545688766774	1
3	232	9.908625705573	1
3	260	10.908625705573	1
3	289	11.908625705573	1
3	332	12.908625705573	1
3	423	13.908625705573	1
3	464	14.908625705573	1
3	486	15.908625705573	1
3	505	16.695639420529	1
3	518	16.908625705573	1
3	545	17.908625705573	1
3	583	18.908625705573	1
3	600	19.171357259036	1
3	617	19.908625705573	1
3	666	20.908625705573	1
3	707	21.908625705573	1
3	758	22.910625705573	1
3	802	23.910625705573	1
3	828	24.57475255913	1
3	948	24.912625705573	1
3	984	25.912625705573	1
3	1026	26.912625705573	1
3	1073	27.912625705573	1
3	1129	28.838846599411	1
3	1227	28.912625705573	1
3	1260	29.325256067749	1
3	1477	32.166246099274	1
3	1602	32.923386798218	1
3	1645	33.959484329729	1
3	1805	35.683081549953	1
3	1815	35.684081549953	1
3	2002	38.979818952606	1
3	2012	38.980818952606	1
3	2111	39.54209715066	1
3	2121	39.54309715066	1
3	2260	40.872309236522	1
3	2269	40.873309236522	1
3	2383	42.239040295075	1
3	2447	43.680493915836	1
3	2457	43.681493915836	1
3	2476	43.682493915836	1
3	2544	43.811490524291	1
3	2565	44.003399240304	1
3	2575	44.004399240304	1
3	2590	44.005399240304	1
3	2603	44.006399240304	1
3	2775	47.176878480361	1
3	2785	47.177878480361	1
3	2799	47.178878480361	1
3	2808	47.179878480361	1
3	2815	47.180878480361	1
3	2859	47.834974544957	1
3	2887	48.053120080163	1
3	2897	48.054120080163	1
3	2912	48.055120080163	1
3	2925	48.056120080163	1
3	2937	48.057120080163	1
3	2987	48.890380018813	1
3	3009	49.637651343945	1
3	3022	49.658314111413	1
3	3032	49.659314111413	1
3	3047	49.660314111413	1
3	3060	49.661314111413	1
3	3073	49.662314111413	1
3	3108	49.890380018813	1
3	3132	50.49914513685	1
3	3142	50.50014513685	1
3	3157	50.50114513685	1
3	3170	50.50214513685	1
3	3183	50.50314513685	1
3	3242	51.018527505288	1
3	3252	51.019527505288	1
3	3267	51.020527505288	1
3	3280	51.021527505288	1
3	3293	51.022527505288	1
3	3319	51.32263795946	1
3	3332	51.369393734665	1
3	3342	51.370393734665	1
3	3357	51.371393734665	1
3	3370	51.372393734665	1
3	3383	51.373393734665	1
3	3432	52.212775350355	1
3	3436	52.32263795946	1
3	3471	53.738998723852	1
3	3484	53.829005060892	1
3	3502	54.614521109881	1
3	3515	54.738898639265	1
3	3522	54.739898639265	1
3	3532	54.740898639265	1
3	3545	54.741898639265	1
3	3560	54.742898639265	1
3	3576	54.743898639265	1
3	3620	54.829005060892	1
3	3640	55.829005060892	1
3	3659	56.454576940842	1
3	3670	56.829005060892	1
3	3673	56.863156466942	1
3	3698	57.829005060892	1
3	3719	57.9977067819	1
3	3726	57.9987067819	1
3	3736	57.9997067819	1
3	3749	58.0007067819	1
3	3764	58.0017067819	1
3	3780	58.0027067819	1
3	3828	58.829005060892	1
3	3855	59.829005060892	1
3	3882	60.829005060892	1
3	3912	61.357149879162	1
3	3919	61.358149879162	1
3	3929	61.359149879162	1
3	3942	61.360149879162	1
3	3957	61.361149879162	1
3	3973	61.362149879162	1
3	4026	62.10040039068	1
3	4051	63.10040039068	1
3	4064	63.254159668349	1
3	4071	63.255159668349	1
3	4081	63.256159668349	1
3	4094	63.257159668349	1
3	4109	63.258159668349	1
3	4125	63.259159668349	1
3	4178	64.10040039068	1
3	4181	64.14243214408	1
3	4184	64.371739849775	1
3	4230	66.955334620621	1
3	4257	67.955334620621	1
3	4264	68.085653837381	1
3	4296	69.415294801236	1
3	4307	69.805668993954	1
3	4346	71.196972648915	1
3	4397	72.205456540518	1
3	4430	73.205456540518	1
3	4462	74.205456540518	1
3	4475	74.539941521861	1
3	4482	74.540941521861	1
3	4492	74.541941521861	1
3	4505	74.542941521861	1
3	4520	74.543941521861	1
3	4536	74.544941521861	1
3	4600	75.205456540518	1
3	4606	75.86446675511	1
3	4627	76.205456540518	1
3	4638	77.098126115501	1
3	4650	77.205456540518	1
3	4667	78.077510103057	1
3	4674	78.078510103057	1
3	4684	78.079510103057	1
3	4697	78.080510103057	1
3	4712	78.081510103057	1
3	4728	78.082510103057	1
3	4772	78.205456540518	1
3	4798	79.205456540518	1
3	4810	79.94311786437	1
3	4826	80.205456540518	1
3	4839	80.299786954398	1
3	4846	80.300786954398	1
3	4860	80.301786954398	1