version 3
run General-0-20250526-18:20:10-24190
attr configname General
attr datetime 20250526-18:20:10
attr datetimef 20250526-182010
attr experiment General
attr inifile omnetpp.ini
attr iterationvars ""
attr iterationvarsd ""
attr iterationvarsf ""
attr measurement ""
attr network Network
attr processid 24190
attr repetition 0
attr replication #0
attr resultdir results
attr runnumber 0
attr seedset 0
config network Network
config sim-time-limit 200s
config "Network.node[{0, 1, 2, 3, 4, 6, 7}].app.interArrivalTime" exponential(1)
config "Network.node[{0, 1, 2, 3, 4, 6, 7}].app.packetByteSize" 125000
config "Network.node[{0, 1, 2, 3, 4, 6, 7}].app.destination" 5
config Network.node[{5}].net.interFeedBackTime exponential(3)

vector 0 Network.node[7].lnk[0] "Lnk use" ETV
vector 1 Network.node[7].lnk[0] "Buffer Size" ETV
vector 2 Network.node[6].lnk[0] "Lnk use" ETV
vector 3 Network.node[6].lnk[0] "Buffer Size" ETV
vector 4 Network.node[0].lnk[0] "Lnk use" ETV
vector 5 Network.node[0].lnk[0] "Buffer Size" ETV
vector 6 Network.node[4].lnk[0] "Lnk use" ETV
vector 7 Network.node[4].lnk[0] "Buffer Size" ETV
vector 8 Network.node[6].lnk[1] "Lnk use" ETV
vector 9 Network.node[5].lnk[1] "Lnk use" ETV
vector 10 Network.node[5].app "Delay Source 6" ETV
vector 11 Network.node[5].app "HopCount Source 6" ETV
vector 12 Network.node[5].lnk[0] "Lnk use" ETV
vector 13 Network.node[5].lnk[0] "Buffer Size" ETV
vector 14 Network.node[4].lnk[1] "Lnk use" ETV
vector 15 Network.node[1].lnk[0] "Lnk use" ETV
vector 16 Network.node[1].lnk[0] "Buffer Size" ETV
vector 17 Network.node[3].lnk[0] "Lnk use" ETV
vector 18 Network.node[3].lnk[0] "Buffer Size" ETV
vector 19 Network.node[7].lnk[1] "Lnk use" ETV
vector 20 Network.node[2].lnk[0] "Lnk use" ETV
vector 21 Network.node[2].lnk[0] "Buffer Size" ETV
vector 22 Network.node[3].lnk[1] "Lnk use" ETV
vector 23 Network.node[0].lnk[1] "Lnk use" ETV
vector 24 Network.node[2].lnk[1] "Lnk use" ETV
vector 25 Network.node[1].lnk[1] "Lnk use" ETV
vector 26 Network.node[5].app "Delay Source 7" ETV
vector 27 Network.node[5].app "HopCount Source 7" ETV
vector 28 Network.node[5].app "Delay Source 0" ETV
vector 29 Network.node[5].app "HopCount Source 0" ETV
vector 30 Network.node[5].app "Delay Source 1" ETV
vector 31 Network.node[5].app "HopCount Source 1" ETV
vector 32 Network.node[5].app "Delay Source 2" ETV
vector 33 Network.node[5].app "HopCount Source 2" ETV
vector 34 Network.node[6].lnk[1] "Buffer Size" ETV
vector 35 Network.node[7].lnk[1] "Buffer Size" ETV
vector 36 Network.node[0].lnk[1] "Buffer Size" ETV
vector 37 Network.node[1].lnk[1] "Buffer Size" ETV
vector 38 Network.node[2].lnk[1] "Buffer Size" ETV
vector 39 Network.node[3].lnk[1] "Buffer Size" ETV
vector 40 Network.node[4].lnk[1] "Buffer Size" ETV
vector 41 Network.node[5].app "Delay Source 3" ETV
vector 42 Network.node[5].app "HopCount Source 3" ETV
vector 43 Network.node[5].app "Delay Source 4" ETV
vector 44 Network.node[5].app "HopCount Source 4" ETV
vector 45 Network.node[5].lnk[1] "Buffer Size" ETV
0	3	0.058384669093	1
0	52	1.898660388484	1
0	110	2.898660388484	1
0	128	3.373296949021	1
0	131	3.524527802686	1
0	167	3.898660388484	1
0	210	4.898660388484	1
0	246	5.564842060628	1
0	249	5.690716470066	1
0	266	5.898660388484	1
0	319	6.898660388484	1
0	332	6.96594417229	1
0	341	7.273224524443	1
0	380	7.898660388484	1
0	412	8.608514709067	1
0	432	8.898660388484	1
0	493	9.898660388484	1
0	539	10.898660388484	1
0	571	11.486429730345	1
0	594	11.898660388484	1
0	623	12.422491290116	1
0	652	12.898660388484	1
0	698	13.898660388484	1
0	753	14.898660388484	1
0	801	15.61543793217	1
0	843	15.898660388484	1
0	889	16.898660388484	1
0	932	17.898660388484	1
0	958	18.602627824022	1
0	978	18.898660388484	1
0	1054	19.202574710663	1
0	1064	19.534984951627	1
0	1067	19.663041716938	1
0	1087	19.898660388484	1
0	1094	19.899660388484	1
0	1104	20.108461178858	1
0	1110	20.234849815283	1
0	1120	20.617550764145	1
0	1171	20.899660388484	1
0	1181	21.152435139902	1
0	1208	21.899660388484	1
0	1218	21.988532671872	1
0	1231	22.699780609089	1
0	1241	22.798430917507	1
0	1257	22.899660388484	1
0	1289	23.656326558581	1
0	1299	23.797657272142	1
0	1315	23.899660388484	1
0	1389	24.899660388484	1
0	1402	25.057591082251	1
0	1405	25.077903541047	1
0	1408	25.258155793032	1
0	1475	25.899660388484	1
0	1521	26.899660388484	1
0	1531	27.023896865445	1
0	1621	27.899660388484	1
0	1685	28.899660388484	1
0	1698	29.287630441306	1
0	1708	29.64065057458	1
0	1744	29.899660388484	1
0	1815	30.899660388484	1
0	1825	31.321572779126	1
0	1877	31.899660388484	1
0	1891	32.500955712771	1
0	1920	32.899660388484	1
0	1936	33.262823484067	1
0	1988	33.899660388484	1
0	2007	34.195226364474	1
0	2023	34.678862051063	1
0	2060	34.899660388484	1
0	2148	35.899660388484	1
0	2206	36.718666632446	1
0	2216	36.786309656013	1
0	2233	36.888630270866	1
0	2238	36.899660388484	1
0	2287	37.718666632446	1
0	2332	37.899660388484	1
0	2435	38.718666632446	1
0	2511	38.899660388484	1
0	2524	39.113544928091	1
0	2527	39.275415014803	1
0	2635	39.899660388484	1
0	2684	40.899660388484	1
0	2717	41.625592304554	1
0	2749	41.899660388484	1
0	2757	41.949689196695	1
0	2801	42.467473266286	1
0	2831	42.539148650599	1
0	2868	42.899660388484	1
0	2876	42.949689196695	1
0	2929	43.734587216881	1
0	2932	43.746370448799	1
0	2952	43.899660388484	1
0	2971	44.083859401836	1
0	3005	44.899660388484	1
0	3024	45.083859401836	1
0	3038	45.194164530787	1
0	3045	45.382459506006	1
0	3060	45.797072048665	1
0	3117	45.899660388484	1
0	3137	46.020211256766	1
0	3139	46.083859401836	1
0	3164	46.218040764225	1
0	3187	46.840638108203	1
0	3203	46.899660388484	1
0	3225	47.083859401836	1
0	3276	47.899660388484	1
0	3300	48.083859401836	1
0	3356	48.899660388484	1
0	3378	49.083859401836	1
0	3422	49.472856970752	1
0	3442	49.899660388484	1
0	3451	50.083859401836	1
0	3531	50.899660388484	1
0	3540	51.083859401836	1
0	3579	51.470028938242	1
0	3611	51.899660388484	1
0	3627	51.977894060929	1
0	3632	52.083859401836	1
0	3671	52.579573047453	1
0	3710	52.899660388484	1
0	3722	53.083859401836	1
0	3796	53.899660388484	1
0	3814	54.083859401836	1
0	3917	54.899660388484	1
0	3926	55.083859401836	1
0	3988	55.899660388484	1
0	3995	55.900660388484	1
0	4007	56.083859401836	1
0	4152	56.901660388484	1
0	4190	57.083859401836	1
0	4301	57.901660388484	1
0	4313	58.083859401836	1
0	4425	58.901660388484	1
0	4434	59.083859401836	1
0	4500	59.901660388484	1
0	4525	60.083859401836	1
0	4599	60.901660388484	1
0	4625	61.083859401836	1
0	4684	61.901660388484	1
0	4764	62.083859401836	1
0	4855	62.901660388484	1
0	4871	63.083859401836	1
0	4965	63.901660388484	1
0	4978	64.083859401836	1
0	5055	64.901660388484	1
0	5074	65.083859401836	1
0	5139	65.901660388484	1
0	5152	66.083859401836	1
0	5238	66.901660388484	1
0	5254	67.083859401836	1
0	5313	67.901660388484	1
0	5326	68.083859401836	1
0	5397	68.901660388484	1
0	5407	69.083859401836	1
0	5496	69.901660388484	1
0	5509	70.083859401836	1
0	5565	70.901660388484	1
0	5578	71.083859401836	1
0	5643	71.901660388484	1
0	5675	72.083859401836	1
0	5782	72.901660388484	1
0	5792	73.083859401836	1
0	5854	73.901660388484	1
0	5867	74.083859401836	1
0	5920	74.901660388484	1
0	5946	75.083859401836	1
0	6031	75.901660388484	1
0	6044	76.083859401836	1
0	6113	76.901660388484	1
0	6126	77.083859401836	1
0	6180	77.901660388484	1
0	6196	78.083859401836	1
0	6318	78.901660388484	1
0	6347	79.083859401836	1
0	6413	79.901660388484	1
0	6464	80.083859401836	1
0	6660	80.901660388484	1
0	6673	81.083859401836	1
0	6727	81.901660388484	1
0	6797	82.083859401836	1
0	6850	82.901660388484	1
0	6860	83.083859401836	1
0	7046	83.901660388484	1
0	7059	84.083859401836	1
0	7136	84.901660388484	1
0	7146	85.083859401836	1
0	7279	85.901660388484	1
0	7292	86.083859401836	1
0	7354	86.901660388484	1
0	7364	87.083859401836	1
0	7435	87.901660388484	1
0	7451	88.083859401836	1
0	7516	88.901660388484	1
0	7532	89.083859401836	1
0	7606	89.901660388484	1
0	7619	90.083859401836	1
0	7678	90.901660388484	1
0	7691	91.083859401836	1
0	7827	91.901660388484	1
0	7852	92.083859401836	1
0	7911	92.901660388484	1
0	7959	93.083859401836	1
0	8024	93.901660388484	1
0	8040	94.083859401836	1
0	8105	94.901660388484	1
0	8118	95.083859401836	1
0	8183	95.901660388484	1
0	8202	96.083859401836	1
0	8327	96.901660388484	1
0	8358	97.083859401836	1
0	8405	97.901660388484	1
0	8475	98.083859401836	1
0	8537	98.901660388484	1
0	8568	99.083859401836	1
0	8750	99.901660388484	1
0	8766	100.083859401836	1
0	8888	100.901660388484	1
0	8901	101.083859401836	1
0	8962	101.901660388484	1
0	8978	102.083859401836	1
0	9033	102.901660388484	1
0	9043	103.083859401836	1
0	9092	103.901660388484	1
0	9114	104.083859401836	1
0	9169	104.901660388484	1
0	9188	105.083859401836	1
0	9243	105.901660388484	1
0	9256	106.083859401836	1
0	9311	106.901660388484	1
0	9321	107.083859401836	1
0	9391	107.901660388484	1
0	9452	108.083859401836	1
0	9510	108.901660388484	1
0	9526	109.083859401836	1
0	9599	109.901660388484	1
0	9669	110.083859401836	1
0	9739	110.901660388484	1
0	9887	111.901660388484	1
0	9951	112.901660388484	1
0	10072	113.901660388484	1
0	10215	114.901660388484	1
0	10300	115.901660388484	1
0	10405	116.901660388484	1
0	10472	117.901660388484	1
0	10611	118.901660388484	1
0	10769	119.901660388484	1
0	10846	120.901660388484	1
0	10922	121.901660388484	1
0	10983	122.901660388484	1
0	11050	123.901660388484	1
0	11120	124.901660388484	1
0	11190	125.901660388484	1
0	11269	126.901660388484	1
0	11333	127.901660388484	1
0	11406	128.901660388484	1
0	11470	129.901660388484	1
0	11543	130.901660388484	1
0	11622	131.901660388484	1
0	12155	132.901660388484	1
0	12218	133.901660388484	1
0	12287	134.901660388484	1
0	12350	135.901660388484	1
0	12407	136.901660388484	1
0	12476	137.901660388484	1
0	12539	138.901660388484	1
0	12681	139.901660388484	1
0	12747	140.901660388484	1
0	12810	141.901660388484	1
0	12900	142.901660388484	1
0	13063	143.901660388484	1
0	13135	144.901660388484	1
0	13280	145.901660388484	1
0	13346	146.901660388484	1
0	13400	147.901660388484	1
0	13472	148.901660388484	1
0	13547	149.901660388484	1
0	13613	150.901660388484	1
0	13676	151.901660388484	1
0	13736	152.901660388484	1
0	13790	153.901660388484	1
0	13935	154.901660388484	1
0	14019	155.901660388484	1
0	14194	156.901660388484	1
0	14330	157.901660388484	1
0	14438	158.901660388484	1
0	14601	159.901660388484	1
0	14670	160.901660388484	1
0	14730	161.901660388484	1
0	14808	162.901660388484	1
0	14874	163.901660388484	1
0	14934	164.901660388484	1
0	14991	165.901660388484	1
0	15084	166.737237663981	1
0	15121	166.840772129426	1
0	15133	166.901660388484	1
0	15136	166.983995400907	1
0	15184	167.42173485702	1
0	15202	167.901660388484	1
0	15246	168.315840745145	1
0	15277	168.901660388484	1
0	15361	169.901660388484	1
0	15415	170.901660388484	1
0	15472	171.901660388484	1
0	15511	172.491284349373	1
0	15539	172.900002003607	1
0	15547	172.901660388484	1
0	15592	173.466131555303	1
0	15607	173.901660388484	1
0	15676	174.901660388484	1
0	15679	174.949304963338	1
0	15739	175.901660388484	1
0	15771	176.317358984713	1
0	15790	176.901660388484	1
0	15867	177.306691687669	1
0	15926	177.901660388484	1
0	16013	178.742421400879	1
0	16086	178.769335562881	1
0	16135	178.901660388484	1
0	16184	179.076291001599	1
0	16280	179.901660388484	1
0	16322	180.417293277383	1
0	16346	180.901660388484	1
0	16353	181.058208700579	1
0	16436	181.6865307327	1
0	16512	181.807904599682	1
0	16561	181.901660388484	1
0	16627	182.901660388484	1
0	16717	183.791144002171	1
0	16760	183.901660388484	1
0	16835	184.901660388484	1
0	16838	184.968349470233	1
0	16909	185.319429532834	1
0	16971	185.901660388484	1
0	16981	186.082464206699	1
0	17046	186.901660388484	1
0	17097	187.577695324828	1
0	17118	187.901660388484	1
0	17169	188.673345195077	1
0	17172	188.702969947374	1
0	17175	188.704178249252	1
0	17190	188.901660388484	1
0	17261	189.20706298233	1
0	17302	189.469717331526	1
0	17314	189.901660388484	1
0	17361	190.212441081225	1
0	17416	190.760833317542	1
0	17465	190.901660388484	1
0	17513	191.803643344568	1
0	17536	191.901660388484	1
0	17612	192.077395848668	1
0	17671	192.270796571028	1
0	17681	192.522936247461	1
0	17687	192.606896287494	1
0	17690	192.696067369762	1
0	17711	192.901660388484	1
0	17723	193.017065027655	1
0	17758	193.085503903038	1
0	17764	193.153359781086	1
0	17804	193.901660388484	1
0	17858	194.901660388484	1
0	17950	195.087969012364	1
0	17984	195.093221540677	1
0	18000	195.649992352117	1
0	18003	195.723004895959	1
0	18024	195.901660388484	1
0	18137	196.790073371362	1
0	18194	196.901660388484	1
0	18228	197.243880803592	1
0	18238	197.457962998255	1
0	18250	197.901660388484	1
0	18309	198.901660388484	1
0	18383	199.901660388484	1
0	18386	199.960120980795	1
1	3	0.058384669093	1
1	4	0.058384669093	0
1	52	1.898660388484	1
1	53	1.898660388484	0
1	110	2.898660388484	1
1	111	2.898660388484	0
1	128	3.373296949021	1
1	131	3.524527802686	2
1	165	3.898660388484	1
1	167	3.898660388484	2
1	208	4.898660388484	1
1	210	4.898660388484	2
1	246	5.564842060628	3
1	249	5.690716470066	4
1	264	5.898660388484	3
1	266	5.898660388484	4
1	317	6.898660388484	3
1	319	6.898660388484	4
1	332	6.96594417229	5
1	341	7.273224524443	6
1	378	7.898660388484	5
1	380	7.898660388484	6
1	412	8.608514709067	7
1	430	8.898660388484	6
1	432	8.898660388484	7
1	491	9.898660388484	6
1	493	9.898660388484	7
1	537	10.898660388484	6
1	539	10.898660388484	7
1	571	11.486429730345	8
1	592	11.898660388484	7
1	594	11.898660388484	8
1	623	12.422491290116	9
1	650	12.898660388484	8
1	652	12.898660388484	9
1	696	13.898660388484	8
1	698	13.898660388484	9
1	751	14.898660388484	8
1	753	14.898660388484	9
1	801	15.61543793217	10
1	841	15.898660388484	9
1	843	15.898660388484	10
1	887	16.898660388484	9
1	889	16.898660388484	10
1	930	17.898660388484	9
1	932	17.898660388484	10
1	958	18.602627824022	11
1	976	18.898660388484	10
1	978	18.898660388484	11
1	1054	19.202574710663	12
1	1064	19.534984951627	13
1	1067	19.663041716938	14
1	1085	19.898660388484	13
1	1087	19.898660388484	14
1	1094	19.899660388484	15
1	1104	20.108461178858	16
1	1110	20.234849815283	17
1	1120	20.617550764145	18
1	1164	20.898660388484	17
1	1171	20.899660388484	18
1	1181	21.152435139902	19
1	1201	21.898660388484	18
1	1208	21.899660388484	19
1	1218	21.988532671872	20
1	1231	22.699780609089	21
1	1241	22.798430917507	22
1	1250	22.898660388484	21
1	1257	22.899660388484	22
1	1289	23.656326558581	23
1	1299	23.797657272142	24
1	1308	23.898660388484	23
1	1315	23.899660388484	24
1	1382	24.898660388484	23
1	1389	24.899660388484	24
1	1402	25.057591082251	25
1	1405	25.077903541047	26
1	1408	25.258155793032	27
1	1468	25.898660388484	26
1	1475	25.899660388484	27
1	1514	26.898660388484	26
1	1521	26.899660388484	27
1	1531	27.023896865445	28
1	1614	27.898660388484	27
1	1621	27.899660388484	28
1	1678	28.898660388484	27
1	1685	28.899660388484	28
1	1698	29.287630441306	29
1	1708	29.64065057458	30
1	1737	29.898660388484	29
1	1744	29.899660388484	30
1	1808	30.898660388484	29
1	1815	30.899660388484	30
1	1825	31.321572779126	31
1	1870	31.898660388484	30
1	1877	31.899660388484	31
1	1891	32.500955712771	32
1	1913	32.898660388484	31
1	1920	32.899660388484	32
1	1936	33.262823484067	33
1	1981	33.898660388484	32
1	1988	33.899660388484	33
1	2007	34.195226364474	34
1	2023	34.678862051063	35
1	2052	34.898660388484	34
1	2058	34.899660388484	33
1	2060	34.899660388484	34
1	2146	35.899660388484	33
1	2148	35.899660388484	34
1	2216	36.786309656013	35
1	2233	36.888630270866	36
1	2236	36.899660388484	35
1	2238	36.899660388484	36
1	2330	37.899660388484	35
1	2332	37.899660388484	36
1	2509	38.899660388484	35
1	2511	38.899660388484	36
1	2524	39.113544928091	37
1	2527	39.275415014803	38
1	2633	39.899660388484	37
1	2635	39.899660388484	38
1	2682	40.899660388484	37
1	2684	40.899660388484	38
1	2717	41.625592304554	39
1	2747	41.899660388484	38
1	2749	41.899660388484	39
1	2801	42.467473266286	40
1	2831	42.539148650599	41
1	2866	42.899660388484	40
1	2868	42.899660388484	41
1	2929	43.734587216881	42
1	2932	43.746370448799	43
1	2950	43.899660388484	42
1	2952	43.899660388484	43
1	3003	44.899660388484	42
1	3005	44.899660388484	43
1	3038	45.194164530787	44
1	3045	45.382459506006	45
1	3060	45.797072048665	46
1	3115	45.899660388484	45
1	3117	45.899660388484	46
1	3137	46.020211256766	47
1	3164	46.218040764225	48
1	3187	46.840638108203	49
1	3201	46.899660388484	48
1	3203	46.899660388484	49
1	3274	47.899660388484	48
1	3276	47.899660388484	49
1	3354	48.899660388484	48
1	3356	48.899660388484	49
1	3422	49.472856970752	50
1	3440	49.899660388484	49
1	3442	49.899660388484	50
1	3529	50.899660388484	49
1	3531	50.899660388484	50
1	3579	51.470028938242	51
1	3609	51.899660388484	50
1	3611	51.899660388484	51
1	3627	51.977894060929	52
1	3671	52.579573047453	53
1	3708	52.899660388484	52
1	3710	52.899660388484	53
1	3794	53.899660388484	52
1	3796	53.899660388484	53
1	3915	54.899660388484	52
1	3917	54.899660388484	53
1	3986	55.899660388484	52
1	3988	55.899660388484	53
1	3995	55.900660388484	54
1	4137	56.899660388484	53
1	4152	56.901660388484	54
1	4290	57.899660388484	53
1	4301	57.901660388484	54
1	4414	58.899660388484	53
1	4425	58.901660388484	54
1	4489	59.899660388484	53
1	4500	59.901660388484	54
1	4592	60.899660388484	53
1	4599	60.901660388484	54
1	4677	61.899660388484	53
1	4684	61.901660388484	54
1	4848	62.899660388484	53
1	4855	62.901660388484	54
1	4958	63.899660388484	53
1	4965	63.901660388484	54
1	5048	64.899660388484	53
1	5055	64.901660388484	54
1	5132	65.899660388484	53
1	5139	65.901660388484	54
1	5231	66.899660388484	53
1	5238	66.901660388484	54
1	5306	67.899660388484	53
1	5313	67.901660388484	54
1	5390	68.899660388484	53
1	5397	68.901660388484	54
1	5489	69.899660388484	53
1	5496	69.901660388484	54
1	5558	70.899660388484	53
1	5565	70.901660388484	54
1	5636	71.899660388484	53
1	5643	71.901660388484	54
1	5775	72.899660388484	53
1	5782	72.901660388484	54
1	5847	73.899660388484	53
1	5854	73.901660388484	54
1	5913	74.899660388484	53
1	5920	74.901660388484	54
1	6024	75.899660388484	53
1	6031	75.901660388484	54
1	6106	76.899660388484	53
1	6113	76.901660388484	54
1	6173	77.899660388484	53
1	6180	77.901660388484	54
1	6311	78.899660388484	53
1	6318	78.901660388484	54
1	6406	79.899660388484	53
1	6413	79.901660388484	54
1	6653	80.899660388484	53
1	6660	80.901660388484	54
1	6720	81.899660388484	53
1	6727	81.901660388484	54
1	6843	82.899660388484	53
1	6850	82.901660388484	54
1	7039	83.899660388484	53
1	7046	83.901660388484	54
1	7129	84.899660388484	53
1	7136	84.901660388484	54
1	7272	85.899660388484	53
1	7279	85.901660388484	54
1	7347	86.899660388484	53
1	7354	86.901660388484	54
1	7428	87.899660388484	53
1	7435	87.901660388484	54
1	7509	88.899660388484	53
1	7516	88.901660388484	54
1	7599	89.899660388484	53
1	7606	89.901660388484	54
1	7671	90.899660388484	53
1	7678	90.901660388484	54
1	7820	91.899660388484	53
1	7827	91.901660388484	54
1	7904	92.899660388484	53
1	7911	92.901660388484	54
1	8017	93.899660388484	53
1	8024	93.901660388484	54
1	8098	94.899660388484	53
1	8105	94.901660388484	54
1	8176	95.899660388484	53
1	8183	95.901660388484	54
1	8320	96.899660388484	53
1	8327	96.901660388484	54
1	8398	97.899660388484	53
1	8405	97.901660388484	54
1	8530	98.899660388484	53
1	8537	98.901660388484	54
1	8743	99.899660388484	53
1	8750	99.901660388484	54
1	8881	100.899660388484	53
1	8888	100.901660388484	54
1	8955	101.899660388484	53
1	8962	101.901660388484	54
1	9026	102.899660388484	53
1	9033	102.901660388484	54
1	9085	103.899660388484	53
1	9092	103.901660388484	54
1	9162	104.899660388484	53
1	9169	104.901660388484	54
1	9236	105.899660388484	53
1	9243	105.901660388484	54
1	9304	106.899660388484	53
1	9311	106.901660388484	54
1	9384	107.899660388484	53
1	9391	107.901660388484	54
1	9503	108.899660388484	53
1	9510	108.901660388484	54
1	9589	109.899660388484	53
1	9593	109.900660388484	52
1	9599	109.901660388484	53
1	9732	110.900660388484	52
1	9739	110.901660388484	53
1	9880	111.900660388484	52
1	9887	111.901660388484	53
1	9944	112.900660388484	52
1	9951	112.901660388484	53
1	10065	113.900660388484	52
1	10072	113.901660388484	53
1	10208	114.900660388484	52
1	10215	114.901660388484	53
1	10293	115.900660388484	52
1	10300	115.901660388484	53
1	10398	116.900660388484	52
1	10405	116.901660388484	53
1	10465	117.900660388484	52
1	10472	117.901660388484	53
1	10604	118.900660388484	52
1	10611	118.901660388484	53
1	10762	119.900660388484	52
1	10769	119.901660388484	53
1	10839	120.900660388484	52
1	10846	120.901660388484	53
1	10915	121.900660388484	52
1	10922	121.901660388484	53
1	10976	122.900660388484	52
1	10983	122.901660388484	53
1	11043	123.900660388484	52
1	11050	123.901660388484	53
1	11113	124.900660388484	52
1	11120	124.901660388484	53
1	11183	125.900660388484	52
1	11190	125.901660388484	53
1	11262	126.900660388484	52
1	11269	126.901660388484	53
1	11326	127.900660388484	52
1	11333	127.901660388484	53
1	11399	128.900660388484	52
1	11406	128.901660388484	53
1	11463	129.900660388484	52
1	11470	129.901660388484	53
1	11536	130.900660388484	52
1	11543	130.901660388484	53
1	11615	131.900660388484	52
1	11622	131.901660388484	53
1	12148	132.900660388484	52
1	12155	132.901660388484	53
1	12211	133.900660388484	52
1	12218	133.901660388484	53
1	12280	134.900660388484	52
1	12287	134.901660388484	53
1	12343	135.900660388484	52
1	12350	135.901660388484	53
1	12400	136.900660388484	52
1	12407	136.901660388484	53
1	12469	137.900660388484	52
1	12476	137.901660388484	53
1	12532	138.900660388484	52
1	12539	138.901660388484	53
1	12674	139.900660388484	52
1	12681	139.901660388484	53
1	12740	140.900660388484	52
1	12747	140.901660388484	53
1	12803	141.900660388484	52
1	12810	141.901660388484	53
1	12893	142.900660388484	52
1	12900	142.901660388484	53
1	13056	143.900660388484	52
1	13063	143.901660388484	53
1	13128	144.900660388484	52
1	13135	144.901660388484	53
1	13273	145.900660388484	52
1	13280	145.901660388484	53
1	13339	146.900660388484	52
1	13346	146.901660388484	53
1	13393	147.900660388484	52
1	13400	147.901660388484	53
1	13465	148.900660388484	52
1	13472	148.901660388484	53
1	13540	149.900660388484	52
1	13547	149.901660388484	53
1	13606	150.900660388484	52
1	13613	150.901660388484	53
1	13669	151.900660388484	52
1	13676	151.901660388484	53
1	13729	152.900660388484	52
1	13736	152.901660388484	53
1	13783	153.900660388484	52
1	13790	153.901660388484	53
1	13928	154.900660388484	52
1	13935	154.901660388484	53
1	14012	155.900660388484	52
1	14019	155.901660388484	53
1	14187	156.900660388484	52
1	14194	156.901660388484	53
1	14323	157.900660388484	52
1	14330	157.901660388484	53
1	14431	158.900660388484	52
1	14438	158.901660388484	53
1	14594	159.900660388484	52
1	14601	159.901660388484	53
1	14663	160.900660388484	52
1	14670	160.901660388484	53
1	14723	161.900660388484	52
1	14730	161.901660388484	53
1	14801	162.900660388484	52
1	14808	162.901660388484	53
1	14867	163.900660388484	52
1	14874	163.901660388484	53
1	14927	164.900660388484	52
1	14934	164.901660388484	53
1	14984	165.900660388484	52
1	14991	165.901660388484	53
1	15121	166.840772129426	54
1	15126	166.900660388484	53
1	15133	166.901660388484	54
1	15136	166.983995400907	55
1	15184	167.42173485702	56
1	15195	167.900660388484	55
1	15202	167.901660388484	56
1	15246	168.315840745145	57
1	15270	168.900660388484	56
1	15277	168.901660388484	57
1	15354	169.900660388484	56
1	15361	169.901660388484	57
1	15408	170.900660388484	56
1	15415	170.901660388484	57
1	15465	171.900660388484	56
1	15472	171.901660388484	57
1	15511	172.491284349373	58
1	15539	172.900002003607	59
1	15540	172.900660388484	58
1	15547	172.901660388484	59
1	15592	173.466131555303	60
1	15600	173.900660388484	59
1	15607	173.901660388484	60
1	15669	174.900660388484	59
1	15676	174.901660388484	60
1	15679	174.949304963338	61
1	15732	175.900660388484	60
1	15739	175.901660388484	61
1	15771	176.317358984713	62
1	15783	176.900660388484	61
1	15790	176.901660388484	62
1	15919	177.900660388484	61
1	15926	177.901660388484	62
1	16128	178.900660388484	61
1	16135	178.901660388484	62
1	16273	179.900660388484	61
1	16280	179.901660388484	62
1	16322	180.417293277383	63
1	16339	180.900660388484	62
1	16346	180.901660388484	63
1	16353	181.058208700579	64
1	16554	181.900660388484	63
1	16561	181.901660388484	64
1	16620	182.900660388484	63
1	16627	182.901660388484	64
1	16753	183.900660388484	63
1	16760	183.901660388484	64
1	16828	184.900660388484	63
1	16835	184.901660388484	64
1	16838	184.968349470233	65
1	16964	185.900660388484	64
1	16971	185.901660388484	65
1	16981	186.082464206699	66
1	17039	186.900660388484	65
1	17046	186.901660388484	66
1	17097	187.577695324828	67
1	17111	187.900660388484	66
1	17118	187.901660388484	67
1	17169	188.673345195077	68
1	17172	188.702969947374	69
1	17175	188.704178249252	70
1	17183	188.900660388484	69
1	17190	188.901660388484	70
1	17302	189.469717331526	71
1	17307	189.900660388484	70
1	17314	189.901660388484	71
1	17361	190.212441081225	72
1	17458	190.900660388484	71
1	17465	190.901660388484	72
1	17513	191.803643344568	73
1	17529	191.900660388484	72
1	17536	191.901660388484	73
1	17671	192.270796571028	74
1	17681	192.522936247461	75
1	17687	192.606896287494	76
1	17690	192.696067369762	77
1	17704	192.900660388484	76
1	17711	192.901660388484	77
1	17723	193.017065027655	78
1	17758	193.085503903038	79
1	17764	193.153359781086	80
1	17797	193.900660388484	79
1	17804	193.901660388484	80
1	17851	194.900660388484	79
1	17858	194.901660388484	80
1	17984	195.093221540677	81
1	18000	195.649992352117	82
1	18003	195.723004895959	83
1	18017	195.900660388484	82
1	18024	195.901660388484	83
1	18187	196.900660388484	82
1	18194	196.901660388484	83
1	18228	197.243880803592	84
1	18238	197.457962998255	85
1	18243	197.900660388484	84
1	18250	197.901660388484	85
1	18302	198.900660388484	84
1	18309	198.901660388484	85
1	18376	199.900660388484	84
1	18383	199.901660388484	85
1	18386	199.960120980795	86
2	7	0.353159139138	1
2	11	0.67151527998	1
2	23	1.058484669093	1
2	26	1.155117384928	1
2	94	2.827328585253	1
2	114	2.898760388484	1
2	170	3.898760388484	1
2	191	4.614816248692	1
2	213	4.898760388484	1
2	269	5.898760388484	1
2	282	6.228818323585	1
2	322	6.898760388484	1
2	335	6.999652982052	1
2	338	7.205856264082	1
2	383	7.898760388484	1
2	415	8.694111089834	1
2	435	8.898760388484	1
2	496	9.898760388484	1
2	542	10.898760388484	1
2	549	11.023024464048	1
2	555	11.210450530066	1
2	574	11.653854558687	1
2	597	11.898760388484	1
2	613	12.105956618912	1
2	655	12.898760388484	1
2	665	13.111827624079	1
2	701	13.898760388484	1
2	756	14.898760388484	1
2	846	15.898760388484	1
2	892	16.898760388484	1
2	935	17.898760388484	1
2	952	18.471927974322	1
2	955	18.529254900746	1
2	981	18.898760388484	1
2	1061	19.457733397647	1
2	1090	19.898760388484	1
2	1167	20.898760388484	1
2	1204	21.898760388484	1
2	1253	22.898760388484	1
2	1276	23.349303520492	1
2	1283	23.358704271156	1
2	1311	23.898760388484	1
2	1348	24.459550181247	1
2	1373	24.801204348273	1
2	1385	24.898760388484	1
2	1414	25.30840447153	1
2	1417	25.313111012022	1
2	1427	25.471452518253	1
2	1471	25.898760388484	1
2	1488	26.314535550401	1
2	1498	26.600556522909	1
2	1517	26.898760388484	1
2	1544	27.458949490738	1
2	1547	27.711369483629	1
2	1617	27.898760388484	1
2	1681	28.898760388484	1
2	1740	29.898760388484	1
2	1747	29.932876382103	1
2	1783	30.46359887872	1
2	1811	30.898760388484	1
2	1873	31.898760388484	1
2	1894	32.593098274788	1
2	1916	32.898760388484	1
2	1984	33.898760388484	1
2	2055	34.898760388484	1
2	2151	35.899760388484	1
2	2241	36.899760388484	1
2	2335	37.899760388484	1
2	2514	38.899760388484	1
2	2638	39.899760388484	1
2	2687	40.899760388484	1
2	2752	41.899760388484	1
2	2871	42.899760388484	1
2	2955	43.899760388484	1
2	3008	44.899760388484	1
2	3120	45.899760388484	1
2	3206	46.899760388484	1
2	3279	47.899760388484	1
2	3359	48.899760388484	1
2	3445	49.899760388484	1
2	3534	50.899760388484	1
2	3614	51.899760388484	1
2	3713	52.899760388484	1
2	3799	53.899760388484	1
2	3920	54.899760388484	1
2	3991	55.899760388484	1
2	4140	56.899760388484	1
2	4293	57.899760388484	1
2	4417	58.899760388484	1
2	4492	59.899760388484	1
2	4595	60.899760388484	1
2	4680	61.899760388484	1
2	4851	62.899760388484	1
2	4961	63.899760388484	1
2	5051	64.899760388484	1
2	5135	65.899760388484	1
2	5234	66.899760388484	1
2	5309	67.899760388484	1
2	5393	68.899760388484	1
2	5492	69.899760388484	1
2	5561	70.899760388484	1
2	5639	71.899760388484	1
2	5778	72.899760388484	1
2	5850	73.899760388484	1
2	5916	74.899760388484	1
2	6027	75.899760388484	1
2	6109	76.899760388484	1
2	6176	77.899760388484	1
2	6314	78.899760388484	1
2	6409	79.899760388484	1
2	6656	80.899760388484	1
2	6723	81.899760388484	1
2	6846	82.899760388484	1
2	7042	83.899760388484	1
2	7132	84.899760388484	1
2	7275	85.899760388484	1
2	7350	86.899760388484	1
2	7431	87.899760388484	1
2	7512	88.899760388484	1
2	7602	89.899760388484	1
2	7674	90.899760388484	1
2	7823	91.899760388484	1
2	7907	92.899760388484	1
2	8020	93.899760388484	1
2	8101	94.899760388484	1
2	8179	95.899760388484	1
2	8256	96.204075818979	1
2	8308	96.296780649151	1
2	8323	96.899760388484	1
2	8401	97.899760388484	1
2	8427	98.035524353972	1
2	8519	98.434202339568	1
2	8533	98.899760388484	1
2	8620	99.563131814571	1
2	8669	99.605466034515	1
2	8686	99.645458115862	1
2	8746	99.899760388484	1
2	8815	100.468848681873	1
2	8864	100.616235197614	1
2	8880	100.881328299021	1
2	8884	100.899760388484	1
2	8958	101.899760388484	1
2	9029	102.899760388484	1
2	9088	103.899760388484	1
2	9098	103.954403521806	1
2	9165	104.899760388484	1
2	9172	104.945683027565	1
2	9228	105.53876462489	1
2	9231	105.572636480132	1
2	9239	105.899760388484	1
2	9246	105.939341633926	1
2	9307	106.899760388484	1
2	9387	107.899760388484	1
2	9506	108.899760388484	1
2	9556	109.133103506608	1
2	9559	109.223610976756	1
2	9575	109.488545914393	1
2	9578	109.522179835313	1
2	9592	109.899760388484	1
2	9621	110.063613612183	1
2	9702	110.261099855252	1
2	9708	110.331601803613	1
2	9724	110.621875218736	1
2	9735	110.900760388484	1
2	9742	110.913821290465	1
2	9756	111.05429700742	1
2	9762	111.066406252482	1
2	9790	111.189121259799	1
2	9826	111.743638732175	1
2	9883	111.900760388484	1
2	9947	112.900760388484	1
2	10004	113.321731119455	1
2	10068	113.900760388484	1
2	10157	114.698814901917	1