version 3
run General-0-20250526-15:09:20-6398
attr configname General
attr datetime 20250526-15:09:20
attr datetimef 20250526-150920
attr experiment General
attr inifile omnetpp.ini
attr iterationvars ""
attr iterationvarsd ""
attr iterationvarsf ""
attr measurement ""
attr network Network
attr processid 6398
attr repetition 0
attr replication #0
attr resultdir results
attr runnumber 0
attr seedset 0
config network Network
config sim-time-limit 200s
config "Network.node[{0, 1, 2, 3, 4, 6, 7}].app.interArrivalTime" exponential(3)
config "Network.node[{0, 1, 2, 3, 4, 6, 7}].app.packetByteSize" 125000
config "Network.node[{0, 1, 2, 3, 4, 6, 7}].app.destination" 5
config Network.node[{5}].net.interFeedBackTime exponential(3)

vector 0 Network.node[7].lnk[0] "Lnk use" ETV
vector 1 Network.node[7].lnk[0] "Buffer Size" ETV
vector 2 Network.node[6].lnk[0] "Lnk use" ETV
vector 3 Network.node[6].lnk[0] "Buffer Size" ETV
vector 4 Network.node[6].lnk[1] "Lnk use" ETV
vector 5 Network.node[5].lnk[1] "Lnk use" ETV
vector 6 Network.node[5].app "Delay Source 6" ETV
vector 7 Network.node[5].app "HopCount Source 6" ETV
vector 8 Network.node[0].lnk[0] "Lnk use" ETV
vector 9 Network.node[0].lnk[0] "Buffer Size" ETV
vector 10 Network.node[5].lnk[0] "Lnk use" ETV
vector 11 Network.node[5].lnk[0] "Buffer Size" ETV
vector 12 Network.node[4].lnk[1] "Lnk use" ETV
vector 13 Network.node[4].lnk[0] "Lnk use" ETV
vector 14 Network.node[4].lnk[0] "Buffer Size" ETV
vector 15 Network.node[3].lnk[1] "Lnk use" ETV
vector 16 Network.node[3].lnk[0] "Lnk use" ETV
vector 17 Network.node[3].lnk[0] "Buffer Size" ETV
vector 18 Network.node[2].lnk[1] "Lnk use" ETV
vector 19 Network.node[2].lnk[0] "Lnk use" ETV
vector 20 Network.node[2].lnk[0] "Buffer Size" ETV
vector 21 Network.node[1].lnk[1] "Lnk use" ETV
vector 22 Network.node[1].lnk[0] "Lnk use" ETV
vector 23 Network.node[1].lnk[0] "Buffer Size" ETV
vector 24 Network.node[0].lnk[1] "Lnk use" ETV
vector 25 Network.node[5].app "Delay Source 7" ETV
vector 26 Network.node[5].app "HopCount Source 7" ETV
vector 27 Network.node[7].lnk[1] "Lnk use" ETV
vector 28 Network.node[6].lnk[1] "Buffer Size" ETV
vector 29 Network.node[5].app "Delay Source 0" ETV
vector 30 Network.node[5].app "HopCount Source 0" ETV
vector 31 Network.node[7].lnk[1] "Buffer Size" ETV
vector 32 Network.node[0].lnk[1] "Buffer Size" ETV
vector 33 Network.node[1].lnk[1] "Buffer Size" ETV
vector 34 Network.node[5].app "Delay Source 1" ETV
vector 35 Network.node[5].app "HopCount Source 1" ETV
vector 36 Network.node[2].lnk[1] "Buffer Size" ETV
vector 37 Network.node[3].lnk[1] "Buffer Size" ETV
vector 38 Network.node[5].app "Delay Source 4" ETV
vector 39 Network.node[5].app "HopCount Source 4" ETV
vector 40 Network.node[4].lnk[1] "Buffer Size" ETV
vector 41 Network.node[5].app "Delay Source 2" ETV
vector 42 Network.node[5].app "HopCount Source 2" ETV
vector 43 Network.node[5].lnk[1] "Buffer Size" ETV
vector 44 Network.node[5].app "Delay Source 3" ETV
vector 45 Network.node[5].app "HopCount Source 3" ETV
0	3	0.175154007279	1
0	63	3.695781165452	1
0	68	3.696781165452	1
0	141	6.924632586354	1
0	171	7.579012636224	1
0	191	7.924632586354	1
0	220	8.579012636224	1
0	247	8.924632586354	1
0	276	9.579012636224	1
0	304	9.924632586354	1
0	325	10.119890847064	1
0	337	10.579012636224	1
0	394	11.579012636224	1
0	520	12.579012636224	1
0	568	13.579012636224	1
0	578	13.80416239699	1
0	613	14.579012636224	1
0	661	15.579012636224	1
0	703	16.242567494799	1
0	712	16.579012636224	1
0	799	17.579012636224	1
0	927	18.579012636224	1
0	938	18.580012636224	1
0	1001	19.581012636224	1
0	1005	19.582012636224	1
0	1062	20.583012636224	1
0	1128	21.583012636224	1
0	1186	22.583012636224	1
0	1244	23.583012636224	1
0	1293	24.583012636224	1
0	1355	25.585012636224	1
0	1373	26.042046920416	1
0	1503	26.585012636224	1
0	1580	28.286342241639	1
0	1814	33.384599514626	1
0	1846	33.386599514626	1
0	1919	34.88689104344	1
0	2002	36.402212530126	1
0	2038	36.404212530126	1
0	2097	38.060370283497	1
0	2131	38.936611883299	1
0	2177	39.578440675408	1
0	2217	39.580440675408	1
0	2284	40.867954888107	1
0	2322	42.01262241823	1
0	2358	42.50903289762	1
0	2394	42.51103289762	1
0	2422	42.669264207752	1
0	2470	44.049306080973	1
0	2482	44.500537837575	1
0	2559	46.974611883442	1
0	2583	47.75934598021	1
0	2611	48.75934598021	1
0	2715	51.470602573176	1
0	2731	51.471602573176	1
0	2754	51.473602573176	1
0	2837	53.270443233099	1
0	2849	53.271443233099	1
0	2860	53.272443233099	1
0	2883	53.274443233099	1
0	2952	54.26767395599	1
0	2964	54.26867395599	1
0	2975	54.26967395599	1
0	2998	54.27167395599	1
0	3011	54.378414208514	1
0	3095	56.234612809081	1
0	3112	56.235612809081	1
0	3126	56.236612809081	1
0	3140	56.237612809081	1
0	3172	56.241012809081	1
0	3257	57.839265936352	1
0	3268	57.840265936352	1
0	3285	57.841265936352	1
0	3305	57.842265936352	1
0	3323	57.843265936352	1
0	3351	57.844665936352	1
0	3365	58.221706262195	1
0	3396	58.572452280597	1
0	3407	58.573452280597	1
0	3424	58.574452280597	1
0	3444	58.575452280597	1
0	3462	58.576452280597	1
0	3490	58.577852280597	1
0	3557	60.720236810394	1
0	3596	61.080744876508	1
0	3606	61.081744876508	1
0	3619	61.082744876508	1
0	3632	61.083744876508	1
0	3660	61.085744876508	1
0	3691	61.645481330687	1
0	3703	61.875300367956	1
0	3711	61.941432255942	1
0	3738	62.90482681736	1
0	3770	63.303021727849	1
0	3780	63.304021727849	1
0	3793	63.305021727849	1
0	3806	63.306021727849	1
0	3834	63.308021727849	1
0	3900	64.279042974436	1
0	3910	64.280042974436	1
0	3923	64.281042974436	1
0	3936	64.282042974436	1
0	3964	64.284042974436	1
0	4002	64.307245226428	1
0	4012	64.308245226428	1
0	4025	64.309245226428	1
0	4038	64.310245226428	1
0	4066	64.312245226428	1
0	4115	65.038570629011	1
0	4153	66.038570629011	1
0	4204	67.038570629011	1
0	4233	67.609782956701	1
0	4243	67.610782956701	1
0	4260	67.611782956701	1
0	4273	67.612782956701	1
0	4301	67.614782956701	1
0	4334	68.038570629011	1
0	4370	68.634745457779	1
0	4380	68.635745457779	1
0	4393	68.636745457779	1
0	4406	68.637745457779	1
0	4434	68.639745457779	1
0	4466	69.038570629011	1
0	4498	69.241796773481	1
0	4508	69.242796773481	1
0	4521	69.243796773481	1
0	4534	69.244796773481	1
0	4562	69.246796773481	1
0	4604	69.302734149868	1
0	4614	69.303734149868	1
0	4627	69.304734149868	1
0	4640	69.305734149868	1
0	4668	69.307734149868	1
0	4688	69.562345779818	1
0	4729	69.843490905822	1
0	4739	69.844490905822	1
0	4752	69.845490905822	1
0	4765	69.846490905822	1
0	4793	69.848490905822	1
0	4814	70.038570629011	1
0	4855	71.038570629011	1
0	4885	71.228683593955	1
0	4895	71.229683593955	1
0	4908	71.230683593955	1
0	4921	71.231683593955	1
0	4949	71.233683593955	1
0	5004	72.088815506487	1
0	5040	73.088815506487	1
0	5082	74.088815506487	1
0	5114	74.859568997057	1
0	5139	74.878209554265	1
0	5149	74.879209554265	1
0	5162	74.880209554265	1
0	5175	74.881209554265	1
0	5203	74.883209554265	1
0	5228	75.088815506487	1
0	5270	76.088815506487	1
0	5301	77.088815506487	1
0	5329	77.425871988958	1
0	5339	77.426871988958	1
0	5352	77.427871988958	1
0	5365	77.428871988958	1
0	5393	77.430871988958	1
0	5434	78.088815506487	1
0	5462	79.088815506487	1
0	5495	79.215010171947	1
0	5505	79.216010171947	1
0	5518	79.217010171947	1
0	5531	79.218010171947	1
0	5559	79.220010171947	1
0	5603	80.088815506487	1
0	5631	81.088815506487	1
0	5653	81.65076972464	1
0	5665	82.088815506487	1
0	5714	82.821725873687	1
0	5724	82.822725873687	1
0	5737	82.823725873687	1
0	5750	82.824725873687	1
0	5778	82.826725873687	1
0	5799	83.088815506487	1
0	5802	83.24293721449	1
0	5826	84.088815506487	1
0	5853	85.088815506487	1
0	5888	86.088815506487	1
0	5917	86.197571924218	1
0	5927	86.198571924218	1
0	5940	86.199571924218	1
0	5953	86.200571924218	1
0	5981	86.202571924218	1
0	6028	87.088815506487	1
0	6052	88.088815506487	1
0	6097	88.861156155528	1
0	6107	88.862156155528	1
0	6120	88.863156155528	1
0	6133	88.864156155528	1
0	6161	88.866156155528	1
0	6182	89.088815506487	1
0	6197	89.631435402694	1
0	6212	90.088815506487	1
0	6267	90.948554538229	1
0	6277	90.949554538229	1
0	6290	90.950554538229	1
0	6303	90.951554538229	1
0	6331	90.953554538229	1
0	6352	91.088815506487	1
0	6380	92.088815506487	1
0	6418	93.088815506487	1
0	6473	93.841915234711	1
0	6483	93.842915234711	1
0	6496	93.843915234711	1
0	6509	93.844915234711	1
0	6537	93.846915234711	1
0	6558	94.088815506487	1
0	6614	94.869714108805	1
0	6624	94.870714108805	1
0	6637	94.871714108805	1
0	6650	94.872714108805	1
0	6678	94.874714108805	1
0	6699	95.088815506487	1
0	6733	96.088815506487	1
0	6768	96.549597319027	1
0	6778	96.550597319027	1
0	6791	96.551597319027	1
0	6804	96.552597319027	1
0	6832	96.554597319027	1
0	6875	97.088815506487	1
0	6915	97.612269715763	1
0	6925	97.613269715763	1
0	6938	97.614269715763	1
0	6951	97.615269715763	1
0	6979	97.617269715763	1
0	7008	98.088815506487	1
0	7041	99.007840475669	1
0	7045	99.088815506487	1
0	7079	100.088815506487	1
0	7100	100.174508922692	1
0	7110	100.175508922692	1
0	7123	100.176508922692	1
0	7138	100.177508922692	1
0	7154	100.178508922692	1
0	7187	100.180508922692	1
0	7252	101.088815506487	1
0	7298	102.088815506487	1
0	7301	102.175389301648	1
0	7340	103.088815506487	1
0	7369	104.088815506487	1
0	7376	104.485619880287	1
0	7390	104.802457811173	1
0	7405	105.088815506487	1
0	7425	106.088815506487	1
0	7476	106.980410900769	1
0	7486	106.981410900769	1
0	7499	106.982410900769	1
0	7512	106.983410900769	1
0	7540	106.985410900769	1
0	7561	107.088815506487	1
0	7586	108.088815506487	1
0	7617	109.088815506487	1
0	7650	110.088815506487	1
0	7671	111.088815506487	1
0	7695	112.088815506487	1
0	7707	112.360304201423	1
0	7735	112.499609256001	1
0	7745	112.500609256001	1
0	7758	112.501609256001	1
0	7771	112.502609256001	1
0	7799	112.504609256001	1
0	7827	112.756855330267	1
0	7834	113.088815506487	1
0	7858	114.088815506487	1
0	7882	115.088815506487	1
0	7914	116.088815506487	1
0	7940	117.088815506487	1
0	7967	118.088815506487	1
0	7992	118.151395915759	1
0	8002	118.152395915759	1
0	8015	118.153395915759	1
0	8028	118.154395915759	1
0	8056	118.156395915759	1
0	8099	118.762814816845	1
0	8107	119.088815506487	1
0	8137	120.088815506487	1
0	8140	120.12755035122	1
0	8165	120.914538278718	1
0	8169	121.088815506487	1
0	8206	121.992398527196	1
0	8216	121.993398527196	1
0	8229	121.994398527196	1
0	8242	121.995398527196	1
0	8270	121.997398527196	1
0	8291	122.088815506487	1
0	8298	122.253296740275	1
0	8310	123.088815506487	1
0	8326	124.088815506487	1
0	8345	125.088815506487	1
0	8368	126.088815506487	1
0	8371	126.181191832343	1
0	8393	127.088815506487	1
0	8421	128.088815506487	1
0	8424	128.198573382844	1
0	8457	129.088815506487	1
0	8483	130.066365414779	1
0	8487	130.088815506487	1
0	8538	130.646233783503	1
0	8550	130.647233783503	1
0	8561	130.648233783503	1
0	8584	130.650233783503	1
0	8628	130.743304197439	1
0	8640	130.744304197439	1
0	8651	130.745304197439	1
0	8674	130.747304197439	1
0	8687	131.088815506487	1
0	8715	132.088815506487	1
0	8750	133.088815506487	1
0	8779	133.722755824809	1
0	8787	134.088815506487	1
0	8821	135.088815506487	1
0	8856	135.335797876241	1
0	8868	135.336797876241	1
0	8879	135.337797876241	1
0	8902	135.339797876241	1
0	8941	136.088815506487	1
0	8972	137.088815506487	1
0	8975	137.325668544435	1
0	8999	138.088815506487	1
0	9026	139.088815506487	1
0	9049	139.999804275165	1
0	9053	140.088815506487	1
0	9074	141.088815506487	1
0	9103	142.088815506487	1
0	9109	142.423744435363	1
0	9143	143.041840580812	1
0	9150	143.088815506487	1
0	9184	143.49984264398	1
0	9196	143.50084264398	1
0	9207	143.50184264398	1
0	9230	143.50384264398	1
0	9268	144.088815506487	1
0	9296	145.088815506487	1
0	9328	146.088815506487	1
0	9356	147.077882880514	1
0	9360	147.088815506487	1
0	9383	148.088815506487	1
0	9386	148.198892263697	1
0	9416	149.088815506487	1
0	9450	150.088815506487	1
0	9477	151.088815506487	1
0	9502	151.774466574662	1
0	9506	152.088815506487	1
0	9530	153.088815506487	1
0	9553	153.728158770415	1
0	9587	154.04327868559	1
0	9603	154.04427868559	1
0	9636	154.04627868559	1
0	9649	154.088815506487	1
0	9679	155.088815506487	1
0	9714	156.088815506487	1
0	9750	156.350638088879	1
0	9787	156.352638088879	1
0	9869	157.085111155008	1
0	9917	157.088815506487	1
0	9920	157.119225408147	1
0	9945	158.088815506487	1
0	9984	159.088815506487	1
0	10023	160.088815506487	1
0	10065	160.348824455851	1
0	10142	161.088815506487	1
0	10195	161.79973961832	1
0	10257	162.088815506487	1
0	10325	162.977458702883	1
0	10373	163.088815506487	1
0	10415	164.088815506487	1
0	10418	164.225979920658	1
0	10447	165.088815506487	1
0	10453	165.347269802108	1
0	10486	166.088815506487	1
0	10524	167.009782289252	1
0	10528	167.088815506487	1
0	10560	168.088815506487	1
0	10589	168.310888713385	1
0	10692	169.088815506487	1
0	10726	170.088815506487	1
0	10770	171.088815506487	1
0	10812	171.800228563661	1
0	10909	172.088815506487	1
0	10968	172.929516618225	1
0	11050	173.088815506487	1
0	11074	174.088815506487	1
0	11122	174.844082435004	1
0	11215	175.088815506487	1
0	11248	175.344706358702	1
0	11354	176.088815506487	1
0	11357	176.169336298032	1
0	11396	177.088815506487	1
0	11400	177.089815506487	1
0	11404	177.090815506487	1
0	11408	177.091815506487	1
0	11412	177.092815506487	1
0	11416	177.093815506487	1
0	11521	179.277623463183	1
0	11604	179.286953207776	1
0	11607	179.287023463183	1
0	11674	181.472524735979	1
0	11741	182.648004961827	1
0	11824	182.657404961827	1
0	11851	182.985364535733	1
0	11861	183.592740826827	1
0	11890	184.06216813798	1
0	11899	184.462190007798	1
0	12056	188.153795170646	1
0	12139	188.163195170646	1
0	12338	190.573370458647	1
0	12507	191.58783460318	1
0	12667	191.904896125494	1
0	13087	199.862571672055	1
1	3	0.175154007279	1
1	4	0.175154007279	0
1	63	3.695781165452	1
1	64	3.695781165452	0
1	68	3.696781165452	1
1	81	4.695781165452	0
1	171	7.579012636224	1
1	172	7.579012636224	0
1	220	8.579012636224	1
1	221	8.579012636224	0
1	276	9.579012636224	1
1	277	9.579012636224	0
1	325	10.119890847064	1
1	335	10.579012636224	0
1	337	10.579012636224	1
1	392	11.579012636224	0
1	394	11.579012636224	1
1	518	12.579012636224	0
1	520	12.579012636224	1
1	566	13.579012636224	0
1	568	13.579012636224	1
1	611	14.579012636224	0
1	613	14.579012636224	1
1	659	15.579012636224	0
1	661	15.579012636224	1
1	703	16.242567494799	2
1	710	16.579012636224	1
1	712	16.579012636224	2
1	797	17.579012636224	1
1	799	17.579012636224	2
1	925	18.579012636224	1
1	927	18.579012636224	2
1	938	18.580012636224	3
1	990	19.579012636224	2
1	1001	19.581012636224	3
1	1005	19.582012636224	4
1	1051	20.579012636224	3
1	1062	20.583012636224	4
1	1114	21.579012636224	3
1	1122	21.580012636224	2
1	1128	21.583012636224	3
1	1176	22.580012636224	2
1	1180	22.581012636224	1
1	1186	22.583012636224	2
1	1237	23.581012636224	1
1	1244	23.583012636224	2
1	1286	24.581012636224	1
1	1293	24.583012636224	2
1	1348	25.581012636224	1
1	1355	25.585012636224	2
1	1496	26.581012636224	1
1	1503	26.585012636224	2
1	1554	27.581012636224	1
1	1580	28.286342241639	2
1	1603	28.581012636224	1
1	1639	29.581012636224	0
1	1919	34.88689104344	1
1	1920	34.88689104344	0
1	2097	38.060370283497	1
1	2098	38.060370283497	0
1	2131	38.936611883299	1
1	2135	39.060370283497	0
1	2284	40.867954888107	1
1	2285	40.867954888107	0
1	2322	42.01262241823	1
1	2323	42.01262241823	0
1	2422	42.669264207752	1
1	2427	43.01262241823	0
1	2470	44.049306080973	1
1	2471	44.049306080973	0
1	2482	44.500537837575	1
1	2499	45.049306080973	0
1	2559	46.974611883442	1
1	2560	46.974611883442	0
1	2583	47.75934598021	1
1	2588	47.974611883442	0
1	2611	48.75934598021	1
1	2619	48.974611883442	0
1	3011	54.378414208514	1
1	3012	54.378414208514	0
1	3172	56.241012809081	1
1	3173	56.241012809081	0
1	3351	57.844665936352	1
1	3352	57.844665936352	0
1	3365	58.221706262195	1
1	3366	58.221706262195	0
1	3490	58.577852280597	1
1	3515	59.221706262195	0
1	3557	60.720236810394	1
1	3558	60.720236810394	0
1	3691	61.645481330687	1
1	3692	61.720236810394	0
1	3703	61.875300367956	1
1	3711	61.941432255942	2
1	3727	62.720236810394	1
1	3738	62.90482681736	2
1	3860	63.720236810394	1
1	4095	64.720236810394	0
1	4115	65.038570629011	1
1	4137	65.720236810394	0
1	4153	66.038570629011	1
1	4184	66.720236810394	0
1	4204	67.038570629011	1
1	4319	67.720236810394	0
1	4334	68.038570629011	1
1	4452	68.720236810394	0
1	4466	69.038570629011	1
1	4688	69.562345779818	2
1	4697	69.720236810394	1
1	4814	70.038570629011	2
1	4840	70.720236810394	1
1	4855	71.038570629011	2
1	4982	71.720236810394	1
1	5004	72.088815506487	2
1	5020	72.720236810394	1
1	5040	73.088815506487	2
1	5059	73.720236810394	1
1	5082	74.088815506487	2
1	5095	74.720236810394	1
1	5114	74.859568997057	2
1	5228	75.088815506487	3
1	5240	75.720236810394	2
1	5270	76.088815506487	3
1	5282	76.720236810394	2
1	5301	77.088815506487	3
1	5419	77.720236810394	2
1	5434	78.088815506487	3
1	5447	78.720236810394	2
1	5462	79.088815506487	3
1	5585	79.720236810394	2
1	5603	80.088815506487	3
1	5620	80.720236810394	2
1	5631	81.088815506487	3
1	5653	81.65076972464	4
1	5654	81.720236810394	3
1	5665	82.088815506487	4
1	5682	82.720236810394	3
1	5799	83.088815506487	4
1	5802	83.24293721449	5
1	5811	83.720236810394	4
1	5826	84.088815506487	5
1	5837	84.720236810394	4
1	5853	85.088815506487	5
1	5865	85.720236810394	4
1	5888	86.088815506487	5
1	6006	86.720236810394	4
1	6028	87.088815506487	5
1	6037	87.720236810394	4
1	6052	88.088815506487	5
1	6061	88.720236810394	4
1	6182	89.088815506487	5
1	6197	89.631435402694	6
1	6198	89.720236810394	5
1	6212	90.088815506487	6
1	6232	90.720236810394	5
1	6352	91.088815506487	6
1	6369	91.720236810394	5
1	6380	92.088815506487	6
1	6407	92.720236810394	5
1	6418	93.088815506487	6
1	6441	93.720236810394	5
1	6558	94.088815506487	6
1	6582	94.720236810394	5
1	6699	95.088815506487	6
1	6719	95.720236810394	5
1	6733	96.088815506487	6
1	6858	96.720236810394	5
1	6875	97.088815506487	6
1	6997	97.720236810394	5
1	7008	98.088815506487	6
1	7028	98.720236810394	5
1	7041	99.007840475669	6
1	7045	99.088815506487	7
1	7064	99.720236810394	6
1	7079	100.088815506487	7
1	7233	100.720236810394	6
1	7252	101.088815506487	7
1	7271	101.720236810394	6
1	7298	102.088815506487	7
1	7301	102.175389301648	8
1	7314	102.720236810394	7
1	7340	103.088815506487	8
1	7349	103.720236810394	7
1	7369	104.088815506487	8
1	7376	104.485619880287	9
1	7384	104.720236810394	8
1	7390	104.802457811173	9
1	7405	105.088815506487	10
1	7414	105.720236810394	9
1	7425	106.088815506487	10
1	7440	106.720236810394	9
1	7561	107.088815506487	10
1	7570	107.720236810394	9
1	7586	108.088815506487	10
1	7605	108.720236810394	9
1	7617	109.088815506487	10
1	7633	109.720236810394	9
1	7650	110.088815506487	10
1	7664	110.720236810394	9
1	7671	111.088815506487	10
1	7685	111.720236810394	9
1	7695	112.088815506487	10
1	7707	112.360304201423	11
1	7821	112.720236810394	10
1	7827	112.756855330267	11
1	7834	113.088815506487	12
1	7848	113.720236810394	11
1	7858	114.088815506487	12
1	7875	114.720236810394	11
1	7882	115.088815506487	12
1	7901	115.720236810394	11
1	7914	116.088815506487	12
1	7926	116.720236810394	11
1	7940	117.088815506487	12
1	7953	117.720236810394	11
1	7967	118.088815506487	12
1	8093	118.720236810394	11
1	8099	118.762814816845	12
1	8107	119.088815506487	13
1	8126	119.720236810394	12
1	8137	120.088815506487	13
1	8140	120.12755035122	14
1	8159	120.720236810394	13
1	8165	120.914538278718	14
1	8169	121.088815506487	15
1	8178	121.720236810394	14
1	8291	122.088815506487	15
1	8298	122.253296740275	16
1	8303	122.720236810394	15
1	8310	123.088815506487	16
1	8319	123.720236810394	15
1	8326	124.088815506487	16
1	8335	124.720236810394	15
1	8345	125.088815506487	16
1	8361	125.720236810394	15
1	8368	126.088815506487	16
1	8371	126.181191832343	17
1	8383	126.720236810394	16
1	8393	127.088815506487	17
1	8402	127.720236810394	16
1	8421	128.088815506487	17
1	8424	128.198573382844	18
1	8444	128.720236810394	17
1	8457	129.088815506487	18
1	8474	129.720236810394	17
1	8483	130.066365414779	18
1	8487	130.088815506487	19
1	8594	130.720236810394	18
1	8687	131.088815506487	19
1	8708	131.720236810394	18
1	8715	132.088815506487	19
1	8736	132.720236810394	18
1	8750	133.088815506487	19
1	8773	133.720236810394	18
1	8779	133.722755824809	19
1	8787	134.088815506487	20
1	8807	134.720236810394	19
1	8821	135.088815506487	20
1	8923	135.720236810394	19
1	8941	136.088815506487	20
1	8953	136.720236810394	19
1	8972	137.088815506487	20
1	8975	137.325668544435	21
1	8984	137.720236810394	20
1	8999	138.088815506487	21
1	9015	138.720236810394	20
1	9026	139.088815506487	21
1	9039	139.720236810394	20
1	9049	139.999804275165	21
1	9053	140.088815506487	22
1	9067	140.720236810394	21
1	9074	141.088815506487	22
1	9092	141.720236810394	21
1	9103	142.088815506487	22
1	9109	142.423744435363	23
1	9129	142.720236810394	22
1	9143	143.041840580812	23
1	9150	143.088815506487	24
1	9252	143.720236810394	23
1	9268	144.088815506487	24
1	9281	144.720236810394	23
1	9296	145.088815506487	24
1	9314	145.720236810394	23
1	9328	146.088815506487	24
1	9346	146.720236810394	23
1	9356	147.077882880514	24
1	9360	147.088815506487	25
1	9369	147.720236810394	24
1	9383	148.088815506487	25
1	9386	148.198892263697	26
1	9405	148.720236810394	25
1	9416	149.088815506487	26
1	9432	149.720236810394	25
1	9450	150.088815506487	26
1	9462	150.720236810394	25
1	9477	151.088815506487	26
1	9496	151.720236810394	25
1	9502	151.774466574662	26
1	9506	152.088815506487	27
1	9523	152.720236810394	26
1	9530	153.088815506487	27
1	9547	153.720236810394	26
1	9553	153.728158770415	27
1	9649	154.088815506487	28
1	9669	154.720236810394	27
1	9679	155.088815506487	28
1	9703	155.720236810394	27
1	9714	156.088815506487	28
1	9813	156.720236810394	27
1	9917	157.088815506487	28
1	9920	157.119225408147	29
1	9929	157.720236810394	28
1	9945	158.088815506487	29
1	9954	158.720236810394	28
1	9984	159.088815506487	29
1	9998	159.720236810394	28
1	10023	160.088815506487	29
1	10114	160.720236810394	28
1	10142	161.088815506487	29
1	10150	161.720236810394	28
1	10257	162.088815506487	29
1	10262	162.720236810394	28
1	10373	163.088815506487	29
1	10381	163.720236810394	28
1	10415	164.088815506487	29
1	10418	164.225979920658	30
1	10423	164.720236810394	29
1	10447	165.088815506487	30
1	10453	165.347269802108	31
1	10462	165.720236810394	30
1	10486	166.088815506487	31
1	10502	166.720236810394	30
1	10524	167.009782289252	31
1	10528	167.088815506487	32
1	10540	167.720236810394	31
1	10560	168.088815506487	32
1	10672	168.720236810394	31
1	10692	169.088815506487	32
1	10703	169.720236810394	31
1	10726	170.088815506487	32
1	10741	170.720236810394	31
1	10770	171.088815506487	32
1	10780	171.720236810394	31
1	10909	172.088815506487	32
1	10921	172.720236810394	31
1	11050	173.088815506487	32
1	11055	173.720236810394	31
1	11074	174.088815506487	32
1	11090	174.720236810394	31
1	11215	175.088815506487	32
1	11339	175.720236810394	31
1	11354	176.088815506487	32
1	11357	176.169336298032	33
1	11378	176.720236810394	32
1	11396	177.088815506487	33
1	11400	177.089815506487	34
1	11404	177.090815506487	35
1	11408	177.091815506487	36
1	11412	177.092815506487	37
1	11416	177.093815506487	38
1	11436	177.720236810394	37
1	11474	178.720236810394	36
1	11604	179.286953207776	37
1	11607	179.287023463183	38
1	11623	179.720236810394	37
1	11650	180.720236810394	36
1	11674	181.472524735979	37
1	11687	181.720236810394	36
1	11824	182.657404961827	37
1	11833	182.720236810394	36
1	11851	182.985364535733	37
1	11861	183.592740826827	38
1	11870	183.720236810394	37
1	11890	184.06216813798	38
1	11899	184.462190007798	39
1	11918	184.720236810394	38
1	11952	185.720236810394	37
1	11986	186.720236810394	36
1	12016	187.720236810394	35
1	12139	188.163195170646	36
1	12155	188.720236810394	35
1	12192	189.720236810394	34
1	12338	190.573370458647	35
1	12354	190.720236810394	34
1	12507	191.58783460318	35
1	12522	191.720236810394	34
1	12667	191.904896125494	35
1	12696	192.720236810394	34
1	12731	193.720236810394	33
1	12769	194.720236810394	32
1	12803	195.720236810394	31
1	12837	196.720236810394	30
1	12872	197.720236810394	29
1	12913	198.720236810394	28
1	12948	199.720236810394	27
1	13087	199.862571672055	28
2	7	1.059477417413	1
2	12	1.175254007279	1
2	16	2.014545839938	1
2	76	3.962884884691	1
2	84	4.695881165452	1
2	224	8.579112636224	1
2	281	9.579112636224	1
2	341	10.579112636224	1
2	398	11.579112636224	1
2	524	12.579112636224	1
2	572	13.579112636224	1
2	617	14.579112636224	1
2	665	15.579112636224	1
2	716	16.579112636224	1
2	756	17.256995854082	1
2	803	17.579112636224	1
2	838	17.646068621668	1
2	851	17.721184895582	1
2	931	18.579112636224	1
2	994	19.579112636224	1
2	1042	19.95857259707	1
2	1050	20.577182443161	1
2	1055	20.579112636224	1
2	1118	21.579112636224	1
2	1179	22.580112636224	1
2	1240	23.581112636224	1
2	1289	24.581112636224	1
2	1351	25.581112636224	1
2	1404	26.404446329543	1
2	1499	26.581112636224	1
2	1557	27.581112636224	1
2	1590	28.477363784516	1
2	1606	28.581112636224	1
2	1642	29.581112636224	1
2	1671	30.581112636224	1
2	1722	31.653866178979	1
2	1735	32.067952244264	1
2	1796	33.383499514626	1
2	1806	33.384499514626	1
2	1823	33.385499514626	1
2	1916	34.876136923578	1
2	1923	35.199042248046	1
2	1961	35.88699104344	1
2	1964	35.901946804373	1
2	1984	36.401112530126	1
2	1994	36.402112530126	1
2	2012	36.403112530126	1
2	2050	36.42968744065	1
2	2134	39.045435001527	1
2	2138	39.060470283497	1
2	2159	39.577340675408	1
2	2169	39.578340675408	1
2	2191	39.579340675408	1
2	2244	39.886266026964	1
2	2248	40.060470283497	1
2	2288	41.123769716731	1
2	2299	41.569906524487	1
2	2319	41.868054888107	1
2	2340	42.50793289762	1
2	2350	42.50893289762	1
2	2368	42.50993289762	1
2	2430	43.01272241823	1
2	2467	44.01272241823	1
2	2502	45.049406080973	1
2	2526	46.049406080973	1
2	2529	46.089812524305	1
2	2591	47.974711883442	1
2	2622	48.974711883442	1
2	2629	49.449255621567	1
2	2652	49.974711883442	1
2	2695	51.469502573176	1
2	2705	51.470502573176	1
2	2725	51.471502573176	1
2	2744	51.472502573176	1
2	2765	51.587006401567	1
2	2819	53.269343233099	1
2	2829	53.270343233099	1
2	2844	53.271343233099	1
2	2857	53.272343233099	1
2	2870	53.273343233099	1
2	2934	54.26657395599	1
2	2944	54.26757395599	1
2	2959	54.26857395599	1
2	2972	54.26957395599	1
2	2985	54.27057395599	1
2	3042	55.378514208514	1
2	3060	55.619742218024	1
2	3077	56.233512809081	1
2	3087	56.234512809081	1
2	3103	56.235512809081	1
2	3120	56.236512809081	1
2	3240	57.838165936352	1
2	3248	57.839165936352	1
2	3262	57.840165936352	1
2	3280	57.841165936352	1
2	3300	57.842165936352	1
2	3379	58.571352280597	1
2	3387	58.572352280597	1
2	3401	58.573352280597	1
2	3419	58.574352280597	1
2	3439	58.575352280597	1
2	3518	59.221806262195	1
2	3584	61.079644876508	1
2	3591	61.080644876508	1
2	3601	61.081644876508	1
2	3614	61.082644876508	1
2	3629	61.083644876508	1
2	3645	61.084644876508	1
2	3695	61.720336810394	1
2	3714	61.992453809029	1
2	3730	62.720336810394	1
2	3758	63.301921727849	1
2	3765	63.302921727849	1
2	3775	63.303921727849	1
2	3788	63.304921727849	1
2	3803	63.305921727849	1
2	3819	63.306921727849	1
2	3863	63.720336810394	1
2	3888	64.277942974436	1
2	3895	64.278942974436	1
2	3905	64.279942974436	1
2	3918	64.280942974436	1
2	3933	64.281942974436	1
2	3949	64.282942974436	1
2	3990	64.306145226428	1
2	3997	64.307145226428	1
2	4007	64.308145226428	1
2	4020	64.309145226428	1
2	4035	64.310145226428	1
2	4051	64.311145226428	1
2	4082	64.566140732252	1
2	4098	64.720336810394	1
2	4140	65.720336810394	1
2	4187	66.720336810394	1
2	4221	67.608682956701	1
2	4228	67.609682956701	1
2	4238	67.610682956701	1
2	4255	67.611682956701	1
2	4270	67.612682956701	1
2	4286	67.613682956701	1
2	4322	67.720336810394	1
2	4358	68.633645457779	1
2	4365	68.634645457779	1
2	4375	68.635645457779	1
2	4388	68.636645457779	1
2	4403	68.637645457779	1
2	4419	68.638645457779	1
2	4455	68.720336810394	1
2	4486	69.240696773481	1
2	4493	69.241696773481	1
2	4503	69.242696773481	1
2	4516	69.243696773481	1
2	4531	69.244696773481	1
2	4547	69.245696773481	1
2	4592	69.301634149868	1
2	4599	69.302634149868	1
2	4609	69.303634149868	1
2	4622	69.304634149868	1
2	4637	69.305634149868	1
2	4653	69.306634149868	1
2	4700	69.720336810394	1
2	4717	69.842390905822	1
2	4724	69.843390905822	1
2	4734	69.844390905822	1
2	4747	69.845390905822	1
2	4762	69.846390905822	1
2	4778	69.847390905822	1
2	4822	70.108123685258	1
2	4825	70.122243306735	1
2	4835	70.597267825427	1
2	4843	70.720336810394	1
2	4873	71.227583593955	1
2	4880	71.228583593955	1
2	4890	71.229583593955	1
2	4903	71.230583593955	1
2	4918	71.231583593955	1
2	4934	71.232583593955	1
2	4985	71.720336810394	1
2	5023	72.720336810394	1
2	5043	73.126516921872	1
2	5062	73.720336810394	1
2	5098	74.720336810394	1
2	5127	74.877109554265	1
2	5134	74.878109554265	1
2	5144	74.879109554265	1
2	5157	74.880109554265	1
2	5172	74.881109554265	1
2	5188	74.882109554265	1
2	5243	75.720336810394	1
2	5285	76.720336810394	1
2	5304	77.359590149755	1
2	5317	77.424771988958	1
2	5324	77.425771988958	1
2	5334	77.426771988958	1
2	5347	77.427771988958	1
2	5362	77.428771988958	1
2	5378	77.429771988958	1
2	5422	77.720336810394	1
2	5450	78.720336810394	1
2	5470	79.137462232112	1
2	5483	79.213910171947	1
2	5490	79.214910171947	1
2	5500	79.215910171947	1
2	5513	79.216910171947	1
2	5528	79.217910171947	1
2	5544	79.218910171947	1
2	5588	79.720336810394	1
2	5623	80.720336810394	1
2	5657	81.720336810394	1
2	5685	82.720336810394	1
2	5702	82.820625873687	1
2	5709	82.821625873687	1
2	5719	82.822625873687	1
2	5732	82.823625873687	1
2	5747	82.824625873687	1
2	5763	82.825625873687	1
2	5814	83.720336810394	1
2	5840	84.720336810394	1
2	5868	85.720336810394	1
2	5905	86.196471924218	1
2	5912	86.197471924218	1
2	5922	86.198471924218	1
2	5935	86.199471924218	1
2	5950	86.200471924218	1
2	5966	86.201471924218	1
2	6009	86.720336810394	1
2	6040	87.720336810394	1
2	6064	88.720336810394	1
2	6085	88.860056155528	1
2	6092	88.861056155528	1
2	6102	88.862056155528	1
2	6115	88.863056155528	1
2	6130	88.864056155528	1
2	6146	88.865056155528	1
2	6201	89.720336810394	1
2	6231	90.666481981843	1
2	6235	90.720336810394	1
2	6255	90.947454538229	1
2	6262	90.948454538229	1
2	6272	90.949454538229	1
2	6285	90.950454538229	1
2	6300	90.951454538229	1
2	6316	90.952454538229	1
2	6372	91.720336810394	1
2	6383	92.173414376626	1