version 3
run General-0-20250526-18:04:36-18769
attr configname General
attr datetime 20250526-18:04:36
attr datetimef 20250526-180436
attr experiment General
attr inifile omnetpp.ini
attr iterationvars ""
attr iterationvarsd ""
attr iterationvarsf ""
attr measurement ""
attr network Network
attr processid 18769
attr repetition 0
attr replication #0
attr resultdir results
attr runnumber 0
attr seedset 0
config network Network
config sim-time-limit 200s
config "Network.node[{0, 2}].app.interArrivalTime" exponential(1)
config "Network.node[{0, 2}].app.packetByteSize" 125000
config "Network.node[{0, 2}].app.destination" 5
config Network.node[{5}].net.interFeedBackTime exponential(3)

vector 0 Network.node[0].lnk[0] "Lnk use" ETV
vector 1 Network.node[0].lnk[0] "Buffer Size" ETV
vector 2 Network.node[2].lnk[0] "Lnk use" ETV
vector 3 Network.node[2].lnk[0] "Buffer Size" ETV
vector 4 Network.node[7].lnk[1] "Lnk use" ETV
vector 5 Network.node[7].lnk[0] "Lnk use" ETV
vector 6 Network.node[7].lnk[0] "Buffer Size" ETV
vector 7 Network.node[1].lnk[1] "Lnk use" ETV
vector 8 Network.node[1].lnk[0] "Lnk use" ETV
vector 9 Network.node[1].lnk[0] "Buffer Size" ETV
vector 10 Network.node[6].lnk[1] "Lnk use" ETV
vector 11 Network.node[6].lnk[0] "Lnk use" ETV
vector 12 Network.node[6].lnk[0] "Buffer Size" ETV
vector 13 Network.node[0].lnk[1] "Lnk use" ETV
vector 14 Network.node[5].lnk[1] "Lnk use" ETV
vector 15 Network.node[5].app "Delay Source 0" ETV
vector 16 Network.node[5].app "HopCount Source 0" ETV
vector 17 Network.node[5].lnk[0] "Lnk use" ETV
vector 18 Network.node[5].lnk[0] "Buffer Size" ETV
vector 19 Network.node[4].lnk[1] "Lnk use" ETV
vector 20 Network.node[4].lnk[0] "Lnk use" ETV
vector 21 Network.node[4].lnk[0] "Buffer Size" ETV
vector 22 Network.node[3].lnk[1] "Lnk use" ETV
vector 23 Network.node[3].lnk[0] "Lnk use" ETV
vector 24 Network.node[3].lnk[0] "Buffer Size" ETV
vector 25 Network.node[2].lnk[1] "Lnk use" ETV
vector 26 Network.node[5].app "Delay Source 2" ETV
vector 27 Network.node[5].app "HopCount Source 2" ETV
vector 28 Network.node[0].lnk[1] "Buffer Size" ETV
vector 29 Network.node[2].lnk[1] "Buffer Size" ETV
vector 30 Network.node[1].lnk[1] "Buffer Size" ETV
vector 31 Network.node[3].lnk[1] "Buffer Size" ETV
vector 32 Network.node[4].lnk[1] "Buffer Size" ETV
vector 33 Network.node[5].lnk[1] "Buffer Size" ETV
vector 34 Network.node[6].lnk[1] "Buffer Size" ETV
vector 35 Network.node[7].lnk[1] "Buffer Size" ETV
0	3	0.898560388484	1
0	7	1.685761528466	1
0	40	3.564725582669	1
0	50	3.859804212075	1
0	62	4.049853746391	1
0	73	4.625372943274	1
0	88	4.859804212075	1
0	128	5.859804212075	1
0	162	6.84889736531	1
0	171	6.859804212075	1
0	174	7.498343713561	1
0	197	7.859804212075	1
0	258	8.859804212075	1
0	307	10.152474513961	1
0	1052	27.936299046207	1
0	1081	28.886625087621	1
0	1097	29.130673578358	1
0	1100	29.27595160565	1
0	1103	29.294920174851	1
0	1106	29.686690985528	1
0	1134	29.763546315756	1
0	1191	30.249955784094	1
0	1197	30.648071924594	1
0	1252	31.004281580318	1
0	1261	31.607619901962	1
0	1292	32.752758856662	1
0	1323	33.35050493348	1
0	1329	33.796023428531	1
0	1360	34.370555835272	1
0	1431	36.696906896966	1
0	1462	37.795819364517	1
0	1507	38.854653496005	1
0	1553	39.638026644151	1
0	1556	39.639026644151	1
0	1602	39.965250941692	1
0	1667	40.968238730013	1
0	1670	40.969238730013	1
0	1687	41.354293631483	1
0	1716	41.829614869753	1
0	1733	42.198721425011	1
0	1762	42.324544910687	1
0	1765	42.325544910687	1
0	1799	42.829614869753	1
0	1816	43.204592430178	1
0	1819	43.312227538334	1
0	1842	43.829614869753	1
0	1859	44.370053951686	1
0	1862	44.604355470462	1
0	1885	44.829614869753	1
0	1902	45.612374715882	1
0	1905	45.788288261308	1
0	1928	45.829614869753	1
0	1968	46.829614869753	1
0	2008	47.829614869753	1
0	2048	48.829614869753	1
0	2091	49.829614869753	1
0	2134	50.829614869753	1
0	2154	51.148388611551	1
0	2157	51.321516067697	1
0	2160	51.734017297619	1
0	2183	51.829614869753	1
0	2186	51.850972707411	1
0	2226	51.903384836848	1
0	2229	51.904384836848	1
0	2272	52.829614869753	1
0	2289	52.974141008944	1
0	2292	53.193021605451	1
0	2315	53.829614869753	1
0	2358	54.829614869753	1
0	2398	55.107601428297	1
0	2401	55.108601428297	1
0	2444	55.829614869753	1
0	2461	56.180211497303	1
0	2487	56.829614869753	1
0	2527	57.829614869753	1
0	2547	58.000030416587	1
0	2570	58.829614869753	1
0	2602	59.829614869753	1
0	2642	60.268596401447	1
0	2645	60.269596401447	1
0	2669	60.829614869753	1
0	2689	61.749061876171	1
0	2698	61.829614869753	1
0	2718	62.461645469504	1
0	2721	62.518972395928	1
0	2730	62.829614869753	1
0	2747	63.447450892829	1
0	2756	63.829614869753	1
0	2773	64.04739777947	1
0	2782	64.829614869753	1
0	2799	65.391643051622	1
0	2802	65.411833179768	1
0	2805	65.451809478826	1
0	2814	65.829614869753	1
0	2834	66.034687867693	1
0	2866	66.584560303824	1
0	2869	66.585560303824	1
0	2892	66.829614869753	1
0	2938	67.638088571968	1
0	2941	67.639088571968	1
0	2961	67.829614869753	1
0	3004	68.786191418553	1
0	3007	68.787191418553	1
0	3027	68.829614869753	1
0	3050	69.829614869753	1
0	3067	69.926257990538	1
0	3093	70.390844545824	1
0	3096	70.391844545824	1
0	3133	70.589736750271	1
0	3136	70.590736750271	1
0	3156	70.829614869753	1
0	3199	71.322923094516	1
0	3202	71.323923094516	1
0	3222	71.829614869753	1
0	3242	72.430169773623	1
0	3251	72.829614869753	1
0	3299	73.821453642715	1
0	3311	73.829614869753	1
0	3332	74.43341029613	1
0	3335	74.532060604548	1
0	3344	74.829614869753	1
0	3372	75.829614869753	1
0	3419	76.043730494056	1
0	3438	76.829614869753	1
0	3459	77.072365112507	1
0	3467	77.397705528036	1
0	3470	77.781265742135	1
0	3473	77.790666492799	1
0	3482	77.829614869753	1
0	3534	78.617417417279	1
0	3546	78.829614869753	1
0	3563	78.89151240289	1
0	3566	79.032843116451	1
0	3583	79.829614869753	1
0	3600	80.07462377063	1
0	3666	81.915906242117	1
0	3689	82.720703641918	1
0	3771	84.159400370285	1
0	3791	84.486444714331	1
0	3797	84.801166375186	1
0	3845	86.129924248936	1
0	3890	86.68864946673	1
0	3952	87.546712384254	1
0	4020	89.405067426651	1
0	7521	156.437569251771	1
0	7527	156.468020362346	1
0	7565	157.668991268888	1
0	7627	159.020340161813	1
0	7690	159.953243576722	1
0	7705	160.390339524801	1
0	7750	161.526936020058	1
0	7754	162.29401567463	1
0	7809	162.808732699348	1
0	7846	164.29118764212	1
0	7961	166.977763890675	1
0	7988	167.629121975974	1
0	8017	167.718341697071	1
0	8037	168.472100751388	1
0	8045	169.073779737912	1
0	8072	169.748024307548	1
0	8165	171.754383996773	1
0	8205	172.021846866759	1
0	8240	173.262502988085	1
0	8287	174.029188037829	1
0	8312	174.45436109174	1
0	8316	174.928777382073	1
0	8349	175.890216953644	1
0	8352	175.915205306957	1
0	8420	177.843565443837	1
0	8451	178.494796175755	1
0	8457	179.09937739409	1
0	8491	179.868497195186	1
0	8556	182.13833721097	1
0	8587	182.772267230364	1
0	8590	183.016758252407	1
0	8621	183.625591166144	1
0	8652	184.713495599758	1
0	8680	185.269271879305	1
0	8739	186.186086584748	1
0	8804	186.628874683422	1
0	8813	187.082413770595	1
0	8844	187.46810146464	1
0	8909	189.815945226069	1
0	8939	190.703447154553	1
0	8973	190.890025050177	1
0	8976	190.891025050177	1
0	9039	192.481590491387	1
0	9057	192.855353785204	1
0	9060	193.174928440077	1
0	9088	193.517407815273	1
0	9095	193.729099269125	1
0	9125	193.864537928869	1
0	9128	193.865537928869	1
0	9179	194.480581235076	1
0	9182	194.481581235076	1
0	9207	194.517407815273	1
0	9248	195.578284408049	1
0	9251	195.89486295	1
0	9287	196.503907562709	1
0	9291	197.178003849889	1
0	9322	197.667020846134	1
0	9348	197.897754187095	1
0	9351	197.898754187095	1
0	9369	198.327523925883	1
0	9423	198.62590966811	1
0	9426	198.62690966811	1
0	9482	199.407830056239	1
0	9485	199.408830056239	1
1	3	0.898560388484	1
1	4	0.898560388484	0
1	7	1.685761528466	1
1	12	1.898560388484	0
1	40	3.564725582669	1
1	41	3.564725582669	0
1	50	3.859804212075	1
1	62	4.049853746391	2
1	66	4.564725582669	1
1	73	4.625372943274	2
1	88	4.859804212075	3
1	93	5.564725582669	2
1	128	5.859804212075	3
1	129	6.564725582669	2
1	162	6.84889736531	3
1	171	6.859804212075	4
1	174	7.498343713561	5
1	175	7.564725582669	4
1	197	7.859804212075	5
1	241	8.564725582669	4
1	258	8.859804212075	5
1	278	9.564725582669	4
1	307	10.152474513961	5
1	357	10.564725582669	4
1	394	11.564725582669	3
1	433	12.564725582669	2
1	476	13.564725582669	1
1	516	14.564725582669	0
1	1081	28.886625087621	1
1	1082	28.886625087621	0
1	1097	29.130673578358	1
1	1100	29.27595160565	2
1	1103	29.294920174851	3
1	1106	29.686690985528	4
1	1155	29.886625087621	3
1	1197	30.648071924594	4
1	1215	30.886625087621	3
1	1261	31.607619901962	4
1	1276	31.886625087621	3
1	1292	32.752758856662	4
1	1307	32.886625087621	3
1	1323	33.35050493348	4
1	1329	33.796023428531	5
1	1344	33.886625087621	4
1	1360	34.370555835272	5
1	1378	34.886625087621	4
1	1412	35.886625087621	3
1	1431	36.696906896966	4
1	1446	36.886625087621	3
1	1462	37.795819364517	4
1	1477	37.886625087621	3
1	1507	38.854653496005	4
1	1508	38.886625087621	3
1	1586	39.886625087621	2
1	1602	39.965250941692	3
1	1628	40.886625087621	2
1	1687	41.354293631483	3
1	1716	41.829614869753	4
1	1717	41.886625087621	3
1	1733	42.198721425011	4
1	1799	42.829614869753	5
1	1800	42.886625087621	4
1	1816	43.204592430178	5
1	1819	43.312227538334	6
1	1842	43.829614869753	7
1	1843	43.886625087621	6
1	1859	44.370053951686	7
1	1862	44.604355470462	8
1	1885	44.829614869753	9
1	1886	44.886625087621	8
1	1902	45.612374715882	9
1	1905	45.788288261308	10
1	1928	45.829614869753	11
1	1929	45.886625087621	10
1	1968	46.829614869753	11
1	1969	46.886625087621	10
1	2008	47.829614869753	11
1	2009	47.886625087621	10
1	2048	48.829614869753	11
1	2049	48.886625087621	10
1	2091	49.829614869753	11
1	2092	49.886625087621	10
1	2134	50.829614869753	11
1	2135	50.886625087621	10
1	2154	51.148388611551	11
1	2157	51.321516067697	12
1	2160	51.734017297619	13
1	2183	51.829614869753	14
1	2186	51.850972707411	15
1	2187	51.886625087621	14
1	2272	52.829614869753	15
1	2273	52.886625087621	14
1	2289	52.974141008944	15
1	2292	53.193021605451	16
1	2315	53.829614869753	17
1	2316	53.886625087621	16
1	2358	54.829614869753	17
1	2359	54.886625087621	16
1	2444	55.829614869753	17
1	2445	55.886625087621	16
1	2461	56.180211497303	17
1	2487	56.829614869753	18
1	2488	56.886625087621	17
1	2527	57.829614869753	18
1	2528	57.886625087621	17
1	2547	58.000030416587	18
1	2570	58.829614869753	19
1	2571	58.886625087621	18
1	2602	59.829614869753	19
1	2603	59.886625087621	18
1	2669	60.829614869753	19
1	2670	60.886625087621	18
1	2689	61.749061876171	19
1	2698	61.829614869753	20
1	2699	61.886625087621	19
1	2718	62.461645469504	20
1	2721	62.518972395928	21
1	2730	62.829614869753	22
1	2731	62.886625087621	21
1	2747	63.447450892829	22
1	2756	63.829614869753	23
1	2757	63.886625087621	22
1	2773	64.04739777947	23
1	2782	64.829614869753	24
1	2783	64.886625087621	23
1	2799	65.391643051622	24
1	2802	65.411833179768	25
1	2805	65.451809478826	26
1	2814	65.829614869753	27
1	2815	65.886625087621	26
1	2834	66.034687867693	27
1	2892	66.829614869753	28
1	2893	66.886625087621	27
1	2961	67.829614869753	28
1	2962	67.886625087621	27
1	3027	68.829614869753	28
1	3028	68.886625087621	27
1	3050	69.829614869753	28
1	3051	69.886625087621	27
1	3067	69.926257990538	28
1	3156	70.829614869753	29
1	3160	70.886625087621	28
1	3222	71.829614869753	29
1	3223	71.886625087621	28
1	3242	72.430169773623	29
1	3251	72.829614869753	30
1	3252	72.886625087621	29
1	3311	73.829614869753	30
1	3312	73.886625087621	29
1	3332	74.43341029613	30
1	3335	74.532060604548	31
1	3344	74.829614869753	32
1	3345	74.886625087621	31
1	3372	75.829614869753	32
1	3373	75.886625087621	31
1	3438	76.829614869753	32
1	3439	76.886625087621	31
1	3459	77.072365112507	32
1	3467	77.397705528036	33
1	3470	77.781265742135	34
1	3473	77.790666492799	35
1	3482	77.829614869753	36
1	3483	77.886625087621	35
1	3546	78.829614869753	36
1	3547	78.886625087621	35
1	3563	78.89151240289	36
1	3566	79.032843116451	37
1	3583	79.829614869753	38
1	3584	79.886625087621	37
1	3600	80.07462377063	38
1	3617	80.886625087621	37
1	3650	81.886625087621	36
1	3666	81.915906242117	37
1	3689	82.720703641918	38
1	3693	82.886625087621	37
1	3730	83.886625087621	36
1	3791	84.486444714331	37
1	3797	84.801166375186	38
1	3798	84.886625087621	37
1	3829	85.886625087621	36
1	3845	86.129924248936	37
1	3897	86.886625087621	36
1	3956	87.886625087621	35
1	3990	88.886625087621	34
1	4020	89.405067426651	35
1	4024	89.886625087621	34
1	4098	90.886625087621	33
1	4130	91.886625087621	32
1	4166	92.886625087621	31
1	4238	93.886625087621	30
1	4276	94.886625087621	29
1	4349	95.886625087621	28
1	4387	96.886625087621	27
1	4418	97.886625087621	26
1	4493	98.886625087621	25
1	4529	99.886625087621	24
1	4612	100.886625087621	23
1	4692	101.886625087621	22
1	4772	102.886625087621	21
1	4811	103.886625087621	20
1	4850	104.886625087621	19
1	4893	105.886625087621	18
1	4936	106.886625087621	17
1	4979	107.886625087621	16
1	5022	108.886625087621	15
1	5071	109.886625087621	14
1	5114	110.886625087621	13
1	5163	111.886625087621	12
1	5246	112.886625087621	11
1	5292	113.886625087621	10
1	5415	114.886625087621	9
1	5504	115.886625087621	8
1	5544	116.886625087621	7
1	5584	117.886625087621	6
1	5667	118.886625087621	5
1	5753	119.886625087621	4
1	5836	120.886625087621	3
1	5876	121.886625087621	2
1	5919	122.886625087621	1
1	5962	123.886625087621	0
1	7527	156.468020362346	1
1	7528	156.468020362346	0
1	7565	157.668991268888	1
1	7566	157.668991268888	0
1	7705	160.390339524801	1
1	7706	160.390339524801	0
1	7750	161.526936020058	1
1	7751	161.526936020058	0
1	7754	162.29401567463	1
1	7777	162.526936020058	0
1	7846	164.29118764212	1
1	7847	164.29118764212	0
1	7988	167.629121975974	1
1	7989	167.629121975974	0
1	8037	168.472100751388	1
1	8038	168.629121975974	0
1	8045	169.073779737912	1
1	8060	169.629121975974	0
1	8072	169.748024307548	1
1	8093	170.629121975974	0
1	8240	173.262502988085	1
1	8241	173.262502988085	0
1	8312	174.45436109174	1
1	8313	174.45436109174	0
1	8316	174.928777382073	1
1	8342	175.45436109174	0
1	8349	175.890216953644	1
1	8352	175.915205306957	2
1	8377	176.45436109174	1
1	8404	177.45436109174	0
1	8420	177.843565443837	1
1	8435	178.45436109174	0
1	8451	178.494796175755	1
1	8457	179.09937739409	2
1	8472	179.45436109174	1
1	8491	179.868497195186	2
1	8506	180.45436109174	1
1	8537	181.45436109174	0
1	8556	182.13833721097	1
1	8571	182.45436109174	0
1	8587	182.772267230364	1
1	8590	183.016758252407	2
1	8605	183.45436109174	1
1	8621	183.625591166144	2
1	8636	184.45436109174	1
1	8652	184.713495599758	2
1	8698	185.45436109174	1
1	8757	186.45436109174	0
1	8813	187.082413770595	1
1	8828	187.45436109174	0
1	8844	187.46810146464	1
1	8859	188.45436109174	0
1	8909	189.815945226069	1
1	8910	189.815945226069	0
1	8939	190.703447154553	1
1	8943	190.815945226069	0
1	9039	192.481590491387	1
1	9040	192.481590491387	0
1	9057	192.855353785204	1
1	9060	193.174928440077	2
1	9075	193.481590491387	1
1	9088	193.517407815273	2
1	9095	193.729099269125	3
1	9186	194.481590491387	2
1	9207	194.517407815273	3
1	9231	195.481590491387	2
1	9248	195.578284408049	3
1	9251	195.89486295	4
1	9271	196.481590491387	3
1	9287	196.503907562709	4
1	9291	197.178003849889	5
1	9306	197.481590491387	4
1	9322	197.667020846134	5
1	9369	198.327523925883	6
1	9384	198.481590491387	5
1	9497	199.481590491387	4
2	10	1.859604212075	1
2	19	2.410652698745	1
2	37	3.387659125138	1
2	65	4.425818425802	1
2	76	4.77897756494	1
2	79	4.837362234033	1
2	119	5.857936007653	1
2	159	6.813004430178	1
2	208	8.152274513961	1
2	237	8.263810745023	1
2	341	10.521833084961	1
2	388	11.067439831184	1
2	424	12.067439831184	1
2	473	13.067439831184	1
2	510	14.067439831184	1
2	550	15.067439831184	1
2	608	15.946940877786	1
2	630	16.067439831184	1
2	663	16.400633438781	1
2	705	17.067439831184	1
2	735	18.067439831184	1
2	764	19.067439831184	1
2	790	20.067439831184	1
2	822	21.067439831184	1
2	851	22.067439831184	1
2	877	23.067439831184	1
2	912	24.067439831184	1
2	938	25.067439831184	1
2	964	26.067439831184	1
2	999	27.067439831184	1
2	1062	28.067439831184	1
2	1092	29.067439831184	1
2	1161	30.067439831184	1
2	1566	39.641226644151	1
2	1584	39.829414869753	1
2	1605	39.967443558181	1
2	1608	40.346405522464	1
2	1680	40.971438730013	1
2	1684	41.282467082235	1
2	1690	41.675579639539	1
2	1693	41.714762795952	1
2	1736	42.292087106759	1
2	1775	42.327744910687	1
2	1945	46.746583952935	1
2	1985	47.805326668029	1
2	2025	48.677242521655	1
2	2065	48.969323054922	1
2	2068	49.504387732005	1
2	2108	50.132329312996	1
2	2111	50.776110314599	1
2	2151	51.056387323078	1
2	2239	51.906584836848	1
2	2243	52.033251397149	1
2	2246	52.414807240523	1
2	2249	52.563519509775	1
2	2332	54.070154843048	1
2	2335	54.530168800788	1
2	2411	55.110801428297	1
2	2415	55.616438181666	1
2	2418	55.630102760097	1
2	2421	55.732247641622	1
2	2464	56.707349575778	1
2	2518	57.827163941532	1
2	2544	57.928198716841	1
2	2655	60.271796401447	1
2	2686	61.501787089185	1
2	2715	62.134123685581	1
2	2831	65.896050970085	1
2	2837	66.228461211049	1
2	2840	66.35651797636	1
2	2879	66.587760303824	1
2	2883	66.80193743828	1
2	2909	67.457583722644	1
2	2912	67.583972359069	1
2	2951	67.641288571968	1
2	2978	68.750845885618	1
2	3017	68.789391418553	1
2	3106	70.394044545824	1
2	3146	70.592936750271	1
2	3159	70.87508308262	1
2	3212	71.326123094516	1
2	3239	72.054272609685	1
2	3268	72.890370141655	1
2	3271	73.198784981753	1
2	4065	90.121891287741	1
2	4207	93.177867477797	1
2	4235	93.669001002512	1
2	4317	94.955739560154	1
2	4384	96.721282659396	1
2	4476	98.562455261894	1
2	4573	100.154622751744	1
2	4609	100.56428924264	1
2	4653	101.016854179954	1
2	4689	101.56428924264	1
2	4733	102.144070707174	1
2	4769	102.56428924264	1
2	4808	103.56428924264	1
2	4873	105.199956283548	1
2	4919	106.199956283548	1
2	4956	107.199956283548	1
2	4999	108.199956283548	1
2	5042	109.199956283548	1
2	5094	110.199956283548	1
2	5134	111.199956283548	1
2	5186	112.199956283548	1
2	5216	112.237182066327	1
2	5266	113.199956283548	1
2	5333	113.917065276549	1
2	5355	114.199956283548	1
2	5385	114.20783354028	1
2	5438	115.199956283548	1
2	5482	115.518917581602	1
2	5524	116.199956283548	1
2	5564	117.199956283548	1
2	5625	118.081156788531	1
2	5647	118.199956283548	1
2	5687	119.199956283548	1
2	5737	119.774988291893	1
2	5794	120.081950136451	1
2	5813	120.199956283548	1
2	5859	121.199956283548	1
2	5896	122.199956283548	1
2	5939	123.199956283548	1
2	5991	124.199956283548	1
2	6031	125.199956283548	1
2	6066	126.199956283548	1
2	6099	127.199956283548	1
2	6122	128.199956283548	1
2	6151	129.199956283548	1
2	6174	130.199956283548	1
2	6200	131.199956283548	1
2	6223	132.199956283548	1
2	6267	132.495379417982	1
2	6307	132.610228156636	1
2	6350	133.142204882071	1
2	6372	133.199956283548	1
2	6404	134.199956283548	1
2	6430	135.199956283548	1
2	6477	136.010104153838	1
2	6496	136.199956283548	1
2	6525	137.199956283548	1
2	6572	137.600112788248	1
2	6612	137.701473144904	1
2	6658	137.916499297843	1
2	6677	138.199956283548	1
2	6703	139.199956283548	1
2	6733	139.318316997073	1
2	6769	140.199956283548	1
2	6816	140.952888381507	1
2	6838	141.199956283548	1
2	6870	142.199956283548	1
2	6893	143.199956283548	1
2	6925	144.199956283548	1
2	6951	145.199956283548	1
2	6980	146.199956283548	1
2	7027	146.991206590125	1
2	7046	147.199956283548	1
2	7090	147.556091515782	1
2	7109	148.199956283548	1
2	7160	148.799929143759	1
2	7200	148.967539302425	1
2	7220	149.199956283548	1
2	7284	150.209476070443	1
2	7303	150.284763453699	1
2	7335	151.284763453699	1
2	7358	152.284763453699	1
2	7381	153.284763453699	1
2	7410	154.284763453699	1
2	7442	155.284763453699	1
2	7474	156.284763453699	1
2	7538	157.284763453699	1
2	7573	158.284763453699	1
2	7637	159.284763453699	1
2	7700	160.284763453699	1
2	7726	161.284763453699	1
2	8986	190.893225050177	1
2	9008	191.517207815273	1
2	9012	191.517263167168	1
2	9091	193.578084408049	1
2	9138	193.867737928869	1
2	9202	194.483781235076	1
2	9215	195.177803849889	1
2	9361	197.900954187095	1
2	9365	198.230988519482	1
2	9436	198.62910966811	1
2	9495	199.411030056239	1
2	9513	199.785651457291	1
3	10	1.859604212075	1
3	11	1.859604212075	0
3	19	2.410652698745	1
3	20	2.859604212075	0
3	37	3.387659125138	1
3	42	3.859604212075	0
3	65	4.425818425802	1
3	76	4.77897756494	2
3	79	4.837362234033	3
3	80	4.859604212075	2
3	119	5.857936007653	3
3	120	5.859604212075	2
3	159	6.813004430178	3
3	163	6.859604212075	2
3	189	7.859604212075	1
3	198	7.860604212075	0
3	208	8.152274513961	1
3	209	8.152274513961	0
3	237	8.263810745023	1
3	269	9.152274513961	0
3	341	10.521833084961	1
3	342	10.521833084961	0
3	608	15.946940877786	1
3	609	15.946940877786	0
3	663	16.400633438781	1
3	664	16.400633438781	0
3	1584	39.829414869753	1
3	1585	39.829414869753	0
3	1605	39.967443558181	1
3	1608	40.346405522464	2
3	1623	40.829414869753	1
3	1684	41.282467082235	2
3	1690	41.675579639539	3
3	1693	41.714762795952	4
3	1708	41.829414869753	3
3	1736	42.292087106759	4
3	1791	42.829414869753	3
3	1834	43.829414869753	2
3	1877	44.829414869753	1
3	1920	45.829414869753	0
3	1945	46.746583952935	1
3	1960	46.829414869753	0
3	1985	47.805326668029	1
3	2000	47.829414869753	0
3	2025	48.677242521655	1
3	2040	48.829414869753	0
3	2065	48.969323054922	1
3	2068	49.504387732005	2
3	2083	49.829414869753	1
3	2108	50.132329312996	2
3	2111	50.776110314599	3
3	2126	50.829414869753	2
3	2151	51.056387323078	3
3	2175	51.829414869753	2
3	2243	52.033251397149	3
3	2246	52.414807240523	4
3	2249	52.563519509775	5
3	2264	52.829414869753	4
3	2307	53.829414869753	3
3	2332	54.070154843048	4
3	2335	54.530168800788	5
3	2350	54.829414869753	4
3	2415	55.616438181666	5
3	2418	55.630102760097	6
3	2421	55.732247641622	7
3	2436	55.829414869753	6
3	2464	56.707349575778	7
3	2479	56.829414869753	6
3	2518	57.827163941532	7
3	2519	57.829414869753	6
3	2544	57.928198716841	7
3	2562	58.829414869753	6
3	2594	59.829414869753	5
3	2661	60.829414869753	4
3	2686	61.501787089185	5
3	2690	61.829414869753	4
3	2715	62.134123685581	5
3	2722	62.829414869753	4
3	2748	63.829414869753	3
3	2774	64.829414869753	2
3	2806	65.829414869753	1
3	2831	65.896050970085	2
3	2837	66.228461211049	3
3	2840	66.35651797636	4
3	2883	66.80193743828	5
3	2884	66.829414869753	4
3	2909	67.457583722644	5
3	2912	67.583972359069	6
3	2953	67.829414869753	5
3	2978	68.750845885618	6
3	3019	68.829414869753	5
3	3042	69.829414869753	4
3	3148	70.829414869753	3
3	3159	70.87508308262	4
3	3214	71.829414869753	3
3	3239	72.054272609685	4
3	3243	72.829414869753	3
3	3268	72.890370141655	4
3	3271	73.198784981753	5
3	3303	73.829414869753	4
3	3336	74.829414869753	3
3	3364	75.829414869753	2
3	3430	76.829414869753	1
3	3474	77.829414869753	0
3	4065	90.121891287741	1
3	4066	90.121891287741	0
3	4207	93.177867477797	1
3	4208	93.177867477797	0
3	4317	94.955739560154	1
3	4318	94.955739560154	0
3	4476	98.562455261894	1
3	4477	98.562455261894	0
3	4573	100.154622751744	1
3	4574	100.154622751744	0
3	4653	101.016854179954	1
3	4654	101.016854179954	0
3	4733	102.144070707174	1
3	4734	102.144070707174	0
3	5216	112.237182066327	1
3	5217	112.237182066327	0
3	5333	113.917065276549	1
3	5334	113.917065276549	0
3	5385	114.20783354028	1
3	5386	114.20783354028	0
3	5482	115.518917581602	1
3	5483	115.518917581602	0
3	5625	118.081156788531	1
3	5626	118.081156788531	0
3	5737	119.774988291893	1
3	5738	119.774988291893	0
3	5794	120.081950136451	1
3	5795	120.081950136451	0
3	6267	132.495379417982	1
3	6268	132.495379417982	0
3	6307	132.610228156636	1
3	6308	132.610228156636	0
3	6350	133.142204882071	1
3	6351	133.142204882071	0
3	6477	136.010104153838	1
3	6478	136.010104153838	0
3	6572	137.600112788248	1
3	6573	137.600112788248	0
3	6612	137.701473144904	1
3	6613	137.701473144904	0
3	6658	137.916499297843	1
3	6659	137.916499297843	0
3	6733	139.318316997073	1
3	6734	139.318316997073	0
3	6816	140.952888381507	1
3	6817	140.952888381507	0
3	7027	146.991206590125	1
3	7028	146.991206590125	0
3	7090	147.556091515782	1
3	7091	147.556091515782	0
3	7160	148.799929143759	1
3	7161	148.799929143759	0
3	7200	148.967539302425	1
3	7201	148.967539302425	0
3	7284	150.209476070443	1
3	7285	150.209476070443	0
3	9008	191.517207815273	1
3	9009	191.517207815273	0
3	9012	191.517263167168	1
3	9041	192.517207815273	0
3	9091	193.578084408049	1
3	9092	193.578084408049	0
3	9215	195.177803849889	1
3	9216	195.177803849889	0
3	9365	198.230988519482	1
3	9366	198.230988519482	0
3	9513	199.785651457291	1
3	9514	199.785651457291	0
4	13	1.898660388484	1
4	26	2.898660388484	1
4	67	4.564825582669	1
4	94	5.564825582669	1
4	130	6.564825582669	1
4	176	7.564825582669	1
4	242	8.564825582669	1
4	279	9.564825582669	1
4	358	10.564825582669	1
4	395	11.564825582669	1
4	434	12.564825582669	1
4	477	13.564825582669	1
4	517	14.564825582669	1
4	554	15.564825582669	1
4	1046	27.935199046207	1
4	1128	29.762446315756	1
4	1156	29.886725087621	1
4	1185	30.248855784094	1
4	1216	30.886725087621	1
4	1246	31.003181580318	1
4	1277	31.886725087621	1
4	1308	32.886725087621	1
4	1345	33.886725087621	1
4	1379	34.886725087621	1
4	1413	35.886725087621	1
4	1447	36.886725087621	1
4	1478	37.886725087621	1
4	1509	38.886725087621	1
4	1545	39.636926644151	1
4	1551	39.637926644151	1
4	1587	39.886725087621	1
4	1629	40.886725087621	1
4	1659	40.967138730013	1
4	1665	40.968138730013	1
4	1718	41.886725087621	1
4	1754	42.323444910687	1
4	1760	42.324444910687	1
4	1801	42.886725087621	1
4	1844	43.886725087621	1
4	1887	44.886725087621	1
4	1930	45.886725087621	1
4	1970	46.886725087621	1
4	2010	47.886725087621	1
4	2050	48.886725087621	1
4	2093	49.886725087621	1
4	2136	50.886725087621	1
4	2188	51.886725087621	1
4	2218	51.902284836848	1
4	2224	51.903284836848	1
4	2274	52.886725087621	1
4	2317	53.886725087621	1
4	2360	54.886725087621	1
4	2390	55.106501428297	1
4	2396	55.107501428297	1
4	2446	55.886725087621	1
4	2489	56.886725087621	1
4	2529	57.886725087621	1
4	2572	58.886725087621	1
4	2604	59.886725087621	1
4	2634	60.267496401447	1
4	2640	60.268496401447	1
4	2671	60.886725087621	1
4	2700	61.886725087621	1
4	2732	62.886725087621	1
4	2758	63.886725087621	1
4	2784	64.886725087621	1
4	2816	65.886725087621	1
4	2858	66.583460303824	1
4	2864	66.584460303824	1
4	2894	66.886725087621	1
4	2930	67.636988571968	1
4	2936	67.637988571968	1
4	2963	67.886725087621	1
4	2996	68.785091418553	1
4	3002	68.786091418553	1
4	3029	68.886725087621	1
4	3052	69.886725087621	1
4	3085	70.389744545824	1
4	3091	70.390744545824	1
4	3125	70.588636750271	1
4	3131	70.589636750271	1
4	3161	70.886725087621	1
4	3191	71.321823094516	1
4	3197	71.322823094516	1
4	3224	71.886725087621	1
4	3253	72.886725087621	1
4	3293	73.820353642715	1
4	3313	73.886725087621	1
4	3346	74.886725087621	1
4	3374	75.886725087621	1
4	3413	76.042630494056	1
4	3440	76.886725087621	1
4	3484	77.886725087621	1
4	3528	78.616317417279	1
4	3548	78.886725087621	1
4	3585	79.886725087621	1
4	3618	80.886725087621	1
4	3651	81.886725087621	1
4	3694	82.886725087621	1
4	3731	83.886725087621	1
4	3765	84.158300370285	1
4	3799	84.886725087621	1
4	3830	85.886725087621	1
4	3884	86.68754946673	1
4	3898	86.886725087621	1
4	3946	87.545612384254	1
4	3957	87.886725087621	1
4	3991	88.886725087621	1
4	4025	89.886725087621	1
4	4099	90.886725087621	1
4	4131	91.886725087621	1
4	4167	92.886725087621	1
4	4239	93.886725087621	1
4	4277	94.886725087621	1
4	4350	95.886725087621	1
4	4388	96.886725087621	1
4	4419	97.886725087621	1
4	4494	98.886725087621	1
4	4530	99.886725087621	1
4	4613	100.886725087621	1
4	4693	101.886725087621	1
4	4773	102.886725087621	1
4	4812	103.886725087621	1
4	4851	104.886725087621	1
4	4894	105.886725087621	1
4	4937	106.886725087621	1
4	4980	107.886725087621	1
4	5023	108.886725087621	1
4	5072	109.886725087621	1
4	5115	110.886725087621	1
4	5164	111.886725087621	1
4	5247	112.886725087621	1
4	5293	113.886725087621	1
4	5416	114.886725087621	1
4	5505	115.886725087621	1
4	5545	116.886725087621	1
4	5585	117.886725087621	1
4	5668	118.886725087621	1
4	5754	119.886725087621	1
4	5837	120.886725087621	1
4	5877	121.886725087621	1
4	5920	122.886725087621	1
4	5963	123.886725087621	1
4	6012	124.886725087621	1
4	7515	156.436469251771	1
4	7556	157.468120362346	1
4	7596	158.669091268888	1
4	7621	159.019240161813	1
4	7684	159.952143576722	1
4	7730	161.390439524801	1
4	7778	162.527036020058	1
4	7803	162.807632699348	1
4	7835	163.527036020058	1
4	7878	165.29128764212	1
4	7955	166.976663890675	1
4	8011	167.717241697071	1
4	8039	168.629221975974	1
4	8061	169.629221975974	1
4	8094	170.629221975974	1
4	8125	171.629221975974	1
4	8159	171.753283996773	1
4	8199	172.020746866759	1
4	8281	174.028088037829	1
4	8292	174.262602988085	1
4	8343	175.45446109174	1
4	8378	176.45446109174	1
4	8405	177.45446109174	1
4	8436	178.45446109174	1
4	8473	179.45446109174	1
4	8507	180.45446109174	1
4	8538	181.45446109174	1
4	8572	182.45446109174	1
4	8606	183.45446109174	1
4	8637	184.45446109174	1
4	8674	185.268171879305	1
4	8699	185.45446109174	1
4	8733	186.184986584748	1
4	8758	186.45446109174	1
4	8798	186.627774683422	1
4	8829	187.45446109174	1
4	8860	188.45446109174	1
4	8894	189.45446109174	1
4	8944	190.816045226069	1
4	8965	190.888925050177	1
4	8971	190.889925050177	1
4	9014	191.816045226069	1
4	9076	193.481690491387	1
4	9117	193.863437928869	1
4	9123	193.864437928869	1
4	9171	194.479481235076	1
4	9177	194.480481235076	1
4	9187	194.481690491387	1
4	9232	195.481690491387	1
4	9272	196.481690491387	1
4	9307	197.481690491387	1
4	9340	197.896654187095	1
4	9346	197.897654187095	1
4	9385	198.481690491387	1
4	9415	198.62480966811	1
4	9421	198.62580966811	1
4	9474	199.406730056239	1
4	9480	199.407730056239	1
4	9498	199.481690491387	1
5	15	1.898660388484	1
5	29	2.898660388484	1
5	69	4.564825582669	1
5	97	5.564825582669	1
5	133	6.564825582669	1
5	179	7.564825582669	1
5	245	8.564825582669	1
5	282	9.564825582669	1
5	361	10.564825582669	1
5	398	11.564825582669	1
5	437	12.564825582669	1
5	480	13.564825582669	1
5	520	14.564825582669	1
5	557	15.564825582669	1
5	1042	27.935199046207	1
5	1124	29.762446315756	1
5	1158	29.886725087621	1
5	1181	30.248855784094	1
5	1219	30.886725087621	1
5	1242	31.003181580318	1
5	1280	31.886725087621	1
5	1311	32.886725087621	1
5	1348	33.886725087621	1
5	1382	34.886725087621	1
5	1416	35.886725087621	1
5	1450	36.886725087621	1
5	1481	37.886725087621	1