version 3
run General-0-20250526-19:18:57-44319
attr configname General
attr datetime 20250526-19:18:57
attr datetimef 20250526-191857
attr experiment General
attr inifile omnetpp.ini
attr iterationvars ""
attr iterationvarsd ""
attr iterationvarsf ""
attr measurement ""
attr network Network
attr processid 44319
attr repetition 0
attr replication #0
attr resultdir results
attr runnumber 0
attr seedset 0
config network Network
config sim-time-limit 200s
config "Network.node[{0, 1, 2, 3, 4, 6, 7}].app.interArrivalTime" exponential(1.5)
config "Network.node[{0, 1, 2, 3, 4, 6, 7}].app.packetByteSize" 125000
config "Network.node[{0, 1, 2, 3, 4, 6, 7}].app.destination" 5
config Network.node[{5}].net.interFeedBackTime exponential(3)

vector 0 Network.node[7].lnk[0] "Lnk use" ETV
vector 1 Network.node[7].lnk[0] "Buffer Size" ETV
vector 2 Network.node[6].lnk[0] "Lnk use" ETV
vector 3 Network.node[6].lnk[0] "Buffer Size" ETV
vector 4 Network.node[6].lnk[1] "Lnk use" ETV
vector 5 Network.node[0].lnk[0] "Lnk use" ETV
vector 6 Network.node[0].lnk[0] "Buffer Size" ETV
vector 7 Network.node[4].lnk[0] "Lnk use" ETV
vector 8 Network.node[4].lnk[0] "Buffer Size" ETV
vector 9 Network.node[5].lnk[1] "Lnk use" ETV
vector 10 Network.node[5].app "Delay Source 6" ETV
vector 11 Network.node[5].app "HopCount Source 6" ETV
vector 12 Network.node[7].lnk[1] "Lnk use" ETV
vector 13 Network.node[3].lnk[1] "Lnk use" ETV
vector 14 Network.node[3].lnk[0] "Lnk use" ETV
vector 15 Network.node[3].lnk[0] "Buffer Size" ETV
vector 16 Network.node[1].lnk[0] "Lnk use" ETV
vector 17 Network.node[1].lnk[0] "Buffer Size" ETV
vector 18 Network.node[2].lnk[0] "Lnk use" ETV
vector 19 Network.node[2].lnk[0] "Buffer Size" ETV
vector 20 Network.node[2].lnk[1] "Lnk use" ETV
vector 21 Network.node[5].app "Delay Source 7" ETV
vector 22 Network.node[5].app "HopCount Source 7" ETV
vector 23 Network.node[0].lnk[1] "Lnk use" ETV
vector 24 Network.node[1].lnk[1] "Lnk use" ETV
vector 25 Network.node[5].lnk[0] "Lnk use" ETV
vector 26 Network.node[5].lnk[0] "Buffer Size" ETV
vector 27 Network.node[4].lnk[1] "Lnk use" ETV
vector 28 Network.node[5].app "Delay Source 0" ETV
vector 29 Network.node[5].app "HopCount Source 0" ETV
vector 30 Network.node[5].app "Delay Source 1" ETV
vector 31 Network.node[5].app "HopCount Source 1" ETV
vector 32 Network.node[5].app "Delay Source 2" ETV
vector 33 Network.node[5].app "HopCount Source 2" ETV
vector 34 Network.node[5].app "Delay Source 4" ETV
vector 35 Network.node[5].app "HopCount Source 4" ETV
vector 36 Network.node[5].app "Delay Source 3" ETV
vector 37 Network.node[5].app "HopCount Source 3" ETV
vector 38 Network.node[2].lnk[1] "Buffer Size" ETV
vector 39 Network.node[3].lnk[1] "Buffer Size" ETV
vector 40 Network.node[4].lnk[1] "Buffer Size" ETV
vector 41 Network.node[7].lnk[1] "Buffer Size" ETV
vector 42 Network.node[0].lnk[1] "Buffer Size" ETV
vector 43 Network.node[1].lnk[1] "Buffer Size" ETV
vector 44 Network.node[6].lnk[1] "Buffer Size" ETV
vector 45 Network.node[5].lnk[1] "Buffer Size" ETV
0	3	0.08757700364	1
0	38	2.347940582726	1
0	70	3.347940582726	1
0	118	4.347940582726	1
0	148	5.059945423532	1
0	154	5.286791704029	1
0	159	5.347940582726	1
0	202	6.347940582726	1
0	247	7.347940582726	1
0	298	8.347940582726	1
0	304	8.348130027897	1
0	315	8.536941642054	1
0	357	9.347940582726	1
0	401	10.347940582726	1
0	407	10.449783195389	1
0	452	11.347940582726	1
0	465	11.412325248436	1
0	501	12.347940582726	1
0	542	12.672827306854	1
0	569	13.347940582726	1
0	582	13.405662880816	1
0	625	14.302281996044	1
0	630	14.347940582726	1
0	685	15.347940582726	1
0	733	16.09644369523	1
0	738	16.347940582726	1
0	744	16.377582794257	1
0	762	16.731892853381	1
0	779	16.938935886024	1
0	790	17.347940582726	1
0	831	18.343028225681	1
0	836	18.347940582726	1
0	947	19.347940582726	1
0	1044	20.347940582726	1
0	1087	21.347940582726	1
0	1139	22.347940582726	1
0	1212	23.132448188761	1
0	1230	23.347940582726	1
0	1284	24.347940582726	1
0	1301	24.761852260078	1
0	1304	24.913404423041	1
0	1324	25.347940582726	1
0	1354	26.347940582726	1
0	1446	27.347940582726	1
0	1486	28.347940582726	1
0	1554	29.347940582726	1
0	1627	30.273786981558	1
0	1632	30.347940582726	1
0	1638	30.373233083781	1
0	1655	30.739826255904	1
0	1676	31.347940582726	1
0	1701	31.993972553859	1
0	1718	32.347940582726	1
0	1766	33.060844459685	1
0	1775	33.347940582726	1
0	1782	33.348940582726	1
0	1843	34.349940582726	1
0	1887	35.349940582726	1
0	1955	36.349940582726	1
0	2030	37.349940582726	1
0	2104	38.349940582726	1
0	2206	39.349940582726	1
0	2291	40.349940582726	1
0	2383	41.349940582726	1
0	2473	42.349940582726	1
0	2535	43.349940582726	1
0	2620	44.349940582726	1
0	2683	45.349940582726	1
0	2740	46.349940582726	1
0	2792	47.349940582726	1
0	2917	48.349940582726	1
0	2983	49.349940582726	1
0	3049	50.349940582726	1
0	3174	51.349940582726	1
0	3308	52.349940582726	1
0	3382	53.349940582726	1
0	3537	54.349940582726	1
0	3652	55.349940582726	1
0	3723	56.349940582726	1
0	3727	56.350940582726	1
0	3848	57.351940582726	1
0	3905	58.351940582726	1
0	4027	59.351940582726	1
0	4087	60.351940582726	1
0	4192	61.265930575406	1
0	4210	61.351940582726	1
0	4273	62.351940582726	1
0	4337	63.351940582726	1
0	4637	64.091823905285	1
0	4659	64.351940582726	1
0	4783	65.091823905285	1
0	4805	65.351940582726	1
0	4831	66.091823905285	1
0	4942	66.351940582726	1
0	5013	67.351940582726	1
0	5040	67.839127102727	1
0	5088	68.351940582726	1
0	5115	68.839127102727	1
0	5176	69.351940582726	1
0	5197	69.839127102727	1
0	5405	70.351940582726	1
0	5435	70.839127102727	1
0	5471	71.351940582726	1
0	5495	71.839127102727	1
0	5534	72.351940582726	1
0	5555	72.839127102727	1
0	5594	73.351940582726	1
0	5598	73.352940582726	1
0	5622	73.839127102727	1
0	5658	74.353940582726	1
0	5768	74.839127102727	1
0	5801	75.353940582726	1
0	5825	75.839127102727	1
0	5873	76.353940582726	1
0	5897	76.839127102727	1
0	6019	77.353940582726	1
0	6324	78.353940582726	1
0	6400	79.353940582726	1
0	6447	80.350532240381	1
0	6453	80.353940582726	1
0	6517	81.350532240381	1
0	6523	81.353940582726	1
0	6573	82.350532240381	1
0	6579	82.353940582726	1
0	6626	83.350532240381	1
0	6632	83.353940582726	1
0	6685	84.350532240381	1
0	6691	84.353940582726	1
0	6747	85.350532240381	1
0	6753	85.353940582726	1
0	6805	86.353940582726	1
0	6851	87.353940582726	1
0	6855	87.354940582726	1
0	7014	88.355940582726	1
0	7016	88.385271239189	1
0	7020	88.386271239189	1
0	7181	89.355940582726	1
0	7185	89.356940582726	1
0	7192	89.358940582726	1
0	7197	89.485322748941	1
0	7201	89.486322748941	1
0	7252	90.359940582726	1
0	7311	91.359940582726	1
0	7332	91.884901911701	1
0	7472	92.359940582726	1
0	7528	93.359940582726	1
0	7558	93.853663901149	1
0	7590	94.359940582726	1
0	7617	94.853663901149	1
0	7661	95.359940582726	1
0	7682	95.853663901149	1
0	7720	96.359940582726	1
0	7744	96.853663901149	1
0	7779	97.359940582726	1
0	7803	97.853663901149	1
0	7856	98.359940582726	1
0	7880	98.853663901149	1
0	7912	99.359940582726	1
0	7916	99.360940582726	1
0	7937	99.853663901149	1
0	7975	100.361940582726	1
0	7999	100.853663901149	1
0	8031	101.361940582726	1
0	8035	101.362940582726	1
0	8170	101.853663901149	1
0	8208	102.363940582726	1
0	8355	102.853663901149	1
0	8616	103.363940582726	1
0	8637	103.853663901149	1
0	8672	104.363940582726	1
0	8720	105.363940582726	1
0	8771	106.363940582726	1
0	8826	107.363940582726	1
0	8828	107.415016845077	1
0	8872	108.363940582726	1
0	8874	108.415016845077	1
0	8918	109.363940582726	1
0	8920	109.415016845077	1
0	8965	110.363940582726	1
0	8999	111.346339409223	1
0	9020	111.363940582726	1
0	9057	112.346339409223	1
0	9081	112.363940582726	1
0	9127	113.363940582726	1
0	9129	113.37925494595	1
0	9176	114.363940582726	1
0	9178	114.37925494595	1
0	9241	115.296562739046	1
0	9335	115.363940582726	1
0	9380	116.363940582726	1
0	9459	117.360393174429	1
0	9517	117.363940582726	1
0	9705	118.363940582726	1
0	9723	118.88872880934	1
0	9730	118.88972880934	1
0	9754	119.363940582726	1
0	9781	119.88972880934	1
0	9803	120.363940582726	1
0	9825	120.756731739043	1
0	9827	120.88972880934	1
0	9855	121.363940582726	1
0	9906	122.363940582726	1
0	9934	122.987876370552	1
0	9947	123.201064637641	1
0	9966	123.363940582726	1
0	9970	123.364940582726	1
0	9977	123.366940582726	1
0	9984	123.368940582726	1
0	9991	123.370940582726	1
0	9998	123.372940582726	1
0	10005	123.374940582726	1
0	10012	123.376940582726	1
0	10019	123.378940582726	1
0	10026	123.380940582726	1
0	10033	123.382940582726	1
0	10040	123.384940582726	1
0	10047	123.386940582726	1
0	10054	123.388940582726	1
0	10061	123.390940582726	1
0	10068	123.392940582726	1
0	10075	123.394940582726	1
0	10082	123.396940582726	1
0	10089	123.398940582726	1
0	10096	123.400940582726	1
0	10103	123.402940582726	1
0	10110	123.404940582726	1
0	10117	123.406940582726	1
0	10121	123.407940582726	1
0	10125	123.408940582726	1
0	10234	125.392894781472	1
0	10270	126.392894781472	1
0	10321	127.392894781472	1
0	10378	128.392894781472	1
0	10435	129.392894781472	1
0	10570	129.844292841718	1
0	10597	130.392894781472	1
0	10601	130.393894781472	1
0	10621	130.600444697125	1
0	10637	131.100549704688	1
0	10686	131.648767393528	1
0	10697	132.168561803125	1
0	10731	132.648767393528	1
0	10832	133.292517004967	1
0	10874	133.648767393528	1
0	10981	134.193492245824	1
0	11105	134.623251309969	1
0	11107	134.648767393528	1
0	11111	134.649767393528	1
0	11115	134.650767393528	1
0	11118	134.651767393528	1
0	11122	134.652767393528	1
0	11125	134.653767393528	1
0	11129	134.654767393528	1
0	11149	134.98723945444	1
0	11196	135.835076534547	1
0	11201	135.99966591492	1
0	11429	139.154636113641	1
0	11436	139.214315465565	1
0	11457	139.447243843822	1
0	11475	139.723749447722	1
0	11479	139.724749447722	1
0	11483	139.725749447722	1
0	11494	139.935000149555	1
0	11522	140.526086507475	1
0	11541	140.78738458235	1
0	11543	140.793825871923	1
0	11564	141.098162355727	1
0	11672	141.459396139243	1
0	11690	141.956089441179	1
0	11694	141.957089441179	1
0	11698	141.958089441179	1
0	11702	142.013886623224	1
0	11709	142.143812114894	1
0	11752	143.133344970566	1
0	11797	144.133344970566	1
0	11837	144.560810113575	1
0	11848	145.133344970566	1
0	11872	145.522270431471	1
0	11896	146.133344970566	1
0	11993	147.64294542578	1
0	12085	147.871661210495	1
0	12109	148.480538760618	1
0	12113	148.481538760618	1
0	12117	148.482538760618	1
0	12137	148.562063593076	1
0	12242	149.482538760618	1
0	12266	149.786091439023	1
0	12331	150.545265418535	1
0	12345	150.546265418535	1
0	12396	150.553665418535	1
0	12500	152.768000621289	1
0	12527	153.487791246906	1
0	12548	153.530329802368	1
0	12616	154.974710505545	1
0	12745	155.7108733539	1
0	12747	155.974710505545	1
0	12838	156.093594075291	1
0	12878	156.974710505545	1
0	13000	157.410825032054	1
0	13021	157.974710505545	1
0	13025	157.975710505545	1
0	13029	157.976710505545	1
0	13032	157.977710505545	1
0	13036	157.978710505545	1
0	13039	157.979710505545	1
0	13043	157.980710505545	1
0	13047	158.002999288357	1
0	13080	158.016981833494	1
0	13094	158.017981833494	1
0	13145	158.025381833494	1
0	13199	159.155693154444	1
0	13206	159.300505072985	1
0	13218	159.371963570693	1
0	13260	160.208655745445	1
0	13276	160.371963570693	1
0	13320	161.255841224111	1
0	13334	161.371963570693	1
0	13369	161.638339552844	1
0	13372	161.687845530429	1
0	13379	162.062771755404	1
0	13404	162.500690862997	1
0	13423	162.71140443843	1
0	13427	162.739310227557	1
0	13472	163.419356570088	1
0	13499	164.000154457899	1
0	13505	164.041103032388	1
0	13508	164.122738560997	1
0	13555	164.679481142199	1
0	13559	165.041103032388	1
0	13597	165.690396308527	1
0	13630	165.964546620184	1
0	13647	165.965546620184	1
0	13661	165.966546620184	1
0	13686	165.971946620184	1
0	13740	167.222973829641	1
0	13780	167.733329659061	1
0	13871	169.459323548455	1
0	13895	169.996499672979	1
0	13949	170.551889908004	1
0	13954	170.996499672979	1
0	13977	171.389380091901	1
0	13985	171.422386915579	1
0	14053	172.635856458278	1
0	14078	173.39979403487	1
0	14081	173.470442941453	1
0	14104	173.635856458278	1
0	14115	174.34363113955	1
0	14161	175.34363113955	1
0	14183	175.483472553227	1
0	14206	176.170973673466	1
0	14248	177.170973673466	1
0	14328	178.684025925183	1
0	14339	179.257432684656	1
0	14444	179.684025925183	1
0	14448	179.685025925183	1
0	14453	180.257432684656	1
0	14500	180.692756112081	1
0	14503	180.782948665776	1
0	14511	181.257432684656	1
0	14520	181.258432684656	1
0	14524	181.259432684656	1
0	14528	181.260432684656	1
0	14579	182.260432684656	1
0	14624	183.260432684656	1
0	14679	184.260432684656	1
0	14704	184.511395292296	1
0	14732	185.260432684656	1
0	14757	185.406220167611	1
0	14788	186.056717450672	1
0	14792	186.122164051913	1
0	14794	186.260432684656	1
0	14964	187.122164051913	1
0	14968	187.123164051913	1
0	14972	187.124164051913	1
0	14974	187.260432684656	1
0	14983	187.261432684656	1
0	14987	187.262432684656	1
0	14991	187.263432684656	1
0	14995	187.264432684656	1
0	15060	188.264432684656	1
0	15065	188.265432684656	1
0	15069	188.266432684656	1
0	15073	188.267432684656	1
0	15077	188.268432684656	1
0	15125	188.678134899076	1
0	15142	189.268432684656	1
0	15181	190.268432684656	1
0	15191	190.342855472396	1
0	15206	190.453115038524	1
0	15272	191.872267650405	1
0	15326	192.903502494023	1
0	15357	193.005541716608	1
0	15374	193.006541716608	1
0	15388	193.007541716608	1
0	15401	193.008541716608	1
0	15451	193.2311171441	1
0	15468	193.2321171441	1
0	15482	193.2331171441	1
0	15495	193.2341171441	1
0	15557	193.6587398305	1
0	15560	193.899834891351	1
0	15564	193.903502494023	1
0	15605	194.903502494023	1
0	15609	194.904502494023	1
0	15613	194.905502494023	1
0	15619	195.245414412509	1
0	15689	196.546352440755	1
0	15698	197.024614013374	1
0	15702	197.213844917763	1
0	15704	197.343722396313	1
0	15747	197.79514243327	1
0	15755	198.343722396313	1
0	15796	198.852566415334	1
0	15801	199.343722396313	1
0	15842	199.552862930679	1
0	15845	199.593183859944	1
1	3	0.08757700364	1
1	4	0.08757700364	0
1	38	2.347940582726	1
1	39	2.347940582726	0
1	70	3.347940582726	1
1	71	3.347940582726	0
1	118	4.347940582726	1
1	119	4.347940582726	0
1	148	5.059945423532	1
1	154	5.286791704029	2
1	157	5.347940582726	1
1	159	5.347940582726	2
1	200	6.347940582726	1
1	202	6.347940582726	2
1	245	7.347940582726	1
1	247	7.347940582726	2
1	296	8.347940582726	1
1	298	8.347940582726	2
1	304	8.348130027897	3
1	315	8.536941642054	4
1	355	9.347940582726	3
1	357	9.347940582726	4
1	399	10.347940582726	3
1	401	10.347940582726	4
1	407	10.449783195389	5
1	450	11.347940582726	4
1	452	11.347940582726	5
1	465	11.412325248436	6
1	499	12.347940582726	5
1	501	12.347940582726	6
1	542	12.672827306854	7
1	567	13.347940582726	6
1	569	13.347940582726	7
1	582	13.405662880816	8
1	625	14.302281996044	9
1	628	14.347940582726	8
1	630	14.347940582726	9
1	683	15.347940582726	8
1	685	15.347940582726	9
1	733	16.09644369523	10
1	736	16.347940582726	9
1	738	16.347940582726	10
1	744	16.377582794257	11
1	762	16.731892853381	12
1	779	16.938935886024	13
1	788	17.347940582726	12
1	790	17.347940582726	13
1	831	18.343028225681	14
1	834	18.347940582726	13
1	836	18.347940582726	14
1	945	19.347940582726	13
1	947	19.347940582726	14
1	1042	20.347940582726	13
1	1044	20.347940582726	14
1	1085	21.347940582726	13
1	1087	21.347940582726	14
1	1137	22.347940582726	13
1	1139	22.347940582726	14
1	1212	23.132448188761	15
1	1228	23.347940582726	14
1	1230	23.347940582726	15
1	1282	24.347940582726	14
1	1284	24.347940582726	15
1	1301	24.761852260078	16
1	1304	24.913404423041	17
1	1322	25.347940582726	16
1	1324	25.347940582726	17
1	1352	26.347940582726	16
1	1354	26.347940582726	17
1	1444	27.347940582726	16
1	1446	27.347940582726	17
1	1484	28.347940582726	16
1	1486	28.347940582726	17
1	1552	29.347940582726	16
1	1554	29.347940582726	17
1	1627	30.273786981558	18
1	1630	30.347940582726	17
1	1632	30.347940582726	18
1	1638	30.373233083781	19
1	1655	30.739826255904	20
1	1674	31.347940582726	19
1	1676	31.347940582726	20
1	1701	31.993972553859	21
1	1716	32.347940582726	20
1	1718	32.347940582726	21
1	1766	33.060844459685	22
1	1773	33.347940582726	21
1	1775	33.347940582726	22
1	1782	33.348940582726	23
1	1836	34.347940582726	22
1	1843	34.349940582726	23
1	1880	35.347940582726	22
1	1887	35.349940582726	23
1	1948	36.347940582726	22
1	1955	36.349940582726	23
1	2020	37.347940582726	22
1	2030	37.349940582726	23
1	2094	38.347940582726	22
1	2104	38.349940582726	23
1	2196	39.347940582726	22
1	2206	39.349940582726	23
1	2281	40.347940582726	22
1	2291	40.349940582726	23
1	2373	41.347940582726	22
1	2383	41.349940582726	23
1	2463	42.347940582726	22
1	2473	42.349940582726	23
1	2525	43.347940582726	22
1	2535	43.349940582726	23
1	2610	44.347940582726	22
1	2620	44.349940582726	23
1	2673	45.347940582726	22
1	2683	45.349940582726	23
1	2730	46.347940582726	22
1	2740	46.349940582726	23
1	2782	47.347940582726	22
1	2792	47.349940582726	23
1	2907	48.347940582726	22
1	2917	48.349940582726	23
1	2973	49.347940582726	22
1	2983	49.349940582726	23
1	3039	50.347940582726	22
1	3049	50.349940582726	23
1	3164	51.347940582726	22
1	3174	51.349940582726	23
1	3298	52.347940582726	22
1	3308	52.349940582726	23
1	3372	53.347940582726	22
1	3382	53.349940582726	23
1	3527	54.347940582726	22
1	3537	54.349940582726	23
1	3642	55.347940582726	22
1	3652	55.349940582726	23
1	3710	56.347940582726	22
1	3717	56.348940582726	21
1	3723	56.349940582726	22
1	3727	56.350940582726	23
1	3841	57.348940582726	22
1	3848	57.351940582726	23
1	3898	58.348940582726	22
1	3905	58.351940582726	23
1	4020	59.348940582726	22
1	4027	59.351940582726	23
1	4080	60.348940582726	22
1	4087	60.351940582726	23
1	4203	61.348940582726	22
1	4210	61.351940582726	23
1	4266	62.348940582726	22
1	4273	62.351940582726	23
1	4330	63.348940582726	22
1	4337	63.351940582726	23
1	4652	64.348940582726	22
1	4659	64.351940582726	23
1	4798	65.348940582726	22
1	4805	65.351940582726	23
1	4935	66.348940582726	22
1	4942	66.351940582726	23
1	5006	67.348940582726	22
1	5013	67.351940582726	23
1	5081	68.348940582726	22
1	5088	68.351940582726	23
1	5169	69.348940582726	22
1	5176	69.351940582726	23
1	5398	70.348940582726	22
1	5405	70.351940582726	23
1	5464	71.348940582726	22
1	5471	71.351940582726	23
1	5527	72.348940582726	22
1	5534	72.351940582726	23
1	5587	73.348940582726	22
1	5594	73.351940582726	23
1	5598	73.352940582726	24
1	5651	74.348940582726	23
1	5658	74.353940582726	24
1	5794	75.348940582726	23
1	5801	75.353940582726	24
1	5863	76.348940582726	23
1	5873	76.353940582726	24
1	6012	77.348940582726	23
1	6019	77.353940582726	24
1	6317	78.348940582726	23
1	6324	78.353940582726	24
1	6386	79.348940582726	23
1	6390	79.349940582726	22
1	6400	79.353940582726	23
1	6442	80.349940582726	22
1	6453	80.353940582726	23
1	6512	81.349940582726	22
1	6523	81.353940582726	23
1	6568	82.349940582726	22
1	6579	82.353940582726	23
1	6621	83.349940582726	22
1	6632	83.353940582726	23
1	6680	84.349940582726	22
1	6691	84.353940582726	23
1	6742	85.349940582726	22
1	6753	85.353940582726	23
1	6798	86.349940582726	22
1	6805	86.353940582726	23
1	6844	87.349940582726	22
1	6851	87.353940582726	23
1	6855	87.354940582726	24
1	7007	88.349940582726	23
1	7014	88.355940582726	24
1	7174	89.349940582726	23
1	7181	89.355940582726	24
1	7185	89.356940582726	25
1	7192	89.358940582726	26
1	7245	90.349940582726	25
1	7252	90.359940582726	26
1	7304	91.349940582726	25
1	7311	91.359940582726	26
1	7465	92.349940582726	25
1	7472	92.359940582726	26
1	7521	93.349940582726	25
1	7528	93.359940582726	26
1	7583	94.349940582726	25
1	7590	94.359940582726	26
1	7654	95.349940582726	25
1	7661	95.359940582726	26
1	7710	96.349940582726	25
1	7714	96.350940582726	24
1	7720	96.359940582726	25
1	7772	97.350940582726	24
1	7779	97.359940582726	25
1	7849	98.350940582726	24
1	7856	98.359940582726	25
1	7905	99.350940582726	24
1	7912	99.359940582726	25
1	7916	99.360940582726	26
1	7968	100.350940582726	25
1	7975	100.361940582726	26
1	8024	101.350940582726	25
1	8031	101.361940582726	26
1	8035	101.362940582726	27
1	8201	102.350940582726	26
1	8208	102.363940582726	27
1	8609	103.350940582726	26
1	8616	103.363940582726	27
1	8665	104.350940582726	26
1	8672	104.363940582726	27
1	8713	105.350940582726	26
1	8720	105.363940582726	27
1	8764	106.350940582726	26
1	8771	106.363940582726	27
1	8819	107.350940582726	26
1	8826	107.363940582726	27
1	8865	108.350940582726	26
1	8872	108.363940582726	27
1	8911	109.350940582726	26
1	8918	109.363940582726	27
1	8955	110.350940582726	26
1	8959	110.351940582726	25
1	8965	110.363940582726	26
1	9013	111.351940582726	25
1	9020	111.363940582726	26
1	9068	112.351940582726	25
1	9072	112.352940582726	24
1	9075	112.353940582726	23
1	9081	112.363940582726	24
1	9120	113.353940582726	23
1	9127	113.363940582726	24
1	9169	114.353940582726	23
1	9176	114.363940582726	24
1	9328	115.353940582726	23
1	9335	115.363940582726	24
1	9373	116.353940582726	23
1	9380	116.363940582726	24
1	9427	117.353940582726	23
1	9517	117.363940582726	24
1	9698	118.353940582726	23
1	9705	118.363940582726	24
1	9747	119.353940582726	23
1	9754	119.363940582726	24
1	9796	120.353940582726	23
1	9803	120.363940582726	24
1	9825	120.756731739043	25
1	9848	121.353940582726	24
1	9855	121.363940582726	25
1	9896	122.353940582726	24
1	9900	122.354940582726	23
1	9906	122.363940582726	24
1	9934	122.987876370552	25
1	9947	123.201064637641	26
1	9959	123.354940582726	25
1	9966	123.363940582726	26
1	9970	123.364940582726	27
1	9977	123.366940582726	28
1	9984	123.368940582726	29
1	9991	123.370940582726	30
1	9998	123.372940582726	31
1	10005	123.374940582726	32
1	10012	123.376940582726	33
1	10019	123.378940582726	34
1	10026	123.380940582726	35
1	10033	123.382940582726	36
1	10040	123.384940582726	37
1	10047	123.386940582726	38
1	10054	123.388940582726	39
1	10061	123.390940582726	40
1	10068	123.392940582726	41
1	10075	123.394940582726	42
1	10082	123.396940582726	43
1	10089	123.398940582726	44
1	10096	123.400940582726	45
1	10103	123.402940582726	46
1	10110	123.404940582726	47
1	10117	123.406940582726	48
1	10121	123.407940582726	49
1	10125	123.408940582726	50
1	10166	124.354940582726	49
1	10170	124.355940582726	48
1	10226	125.355940582726	47
1	10265	126.355940582726	46
1	10316	127.355940582726	45
1	10373	128.355940582726	44
1	10430	129.355940582726	43
1	10570	129.844292841718	44
1	10592	130.355940582726	43
1	10621	130.600444697125	44
1	10637	131.100549704688	45
1	10653	131.355940582726	44
1	10697	132.168561803125	45
1	10710	132.355940582726	44
1	10832	133.292517004967	45
1	10844	133.355940582726	44
1	10981	134.193492245824	45
1	10994	134.355940582726	44
1	11105	134.623251309969	45
1	11149	134.98723945444	46
1	11169	135.355940582726	45
1	11201	135.99966591492	46
1	11214	136.355940582726	45
1	11258	137.355940582726	44
1	11311	138.355940582726	43
1	11429	139.154636113641	44
1	11436	139.214315465565	45
1	11451	139.355940582726	44
1	11457	139.447243843822	45
1	11494	139.935000149555	46
1	11513	140.355940582726	45
1	11522	140.526086507475	46
1	11541	140.78738458235	47
1	11564	141.098162355727	48
1	11580	141.355940582726	47
1	11672	141.459396139243	48
1	11702	142.013886623224	49
1	11709	142.143812114894	50
1	11728	142.355940582726	49
1	11767	143.355940582726	48
1	11812	144.355940582726	47
1	11837	144.560810113575	48
1	11863	145.355940582726	47
1	11872	145.522270431471	48
1	11917	146.355940582726	47
1	11967	147.355940582726	46
1	11993	147.64294542578	47
1	12085	147.871661210495	48
1	12104	148.355940582726	47
1	12137	148.562063593076	48
1	12162	149.355940582726	47
1	12166	149.356940582726	46
1	12169	149.357940582726	45
1	12172	149.358940582726	44
1	12175	149.359940582726	43
1	12178	149.360940582726	42
1	12181	149.361940582726	41
1	12184	149.362940582726	40
1	12187	149.363940582726	39
1	12190	149.364940582726	38
1	12193	149.365940582726	37
1	12196	149.366940582726	36
1	12199	149.367940582726	35
1	12202	149.368940582726	34
1	12205	149.369940582726	33
1	12208	149.370940582726	32
1	12211	149.371940582726	31
1	12214	149.372940582726	30
1	12217	149.373940582726	29
1	12220	149.374940582726	28
1	12223	149.375940582726	27
1	12226	149.376940582726	26
1	12229	149.377940582726	25
1	12232	149.378940582726	24
1	12235	149.379940582726	23
1	12238	149.380940582726	22
1	12266	149.786091439023	23
1	12279	150.380940582726	22
1	12396	150.553665418535	23
1	12421	151.380940582726	22
1	12459	152.380940582726	21
1	12463	152.381940582726	20
1	12466	152.382940582726	19
1	12469	152.383940582726	18
1	12500	152.768000621289	19
1	12522	153.383940582726	18
1	12548	153.530329802368	19
1	12577	154.383940582726	18
1	12581	154.384940582726	17
1	12634	155.384940582726	16
1	12745	155.7108733539	17
1	12838	156.093594075291	18
1	12851	156.384940582726	17
1	12905	157.384940582726	16
1	13000	157.410825032054	17
1	13047	158.002999288357	18
1	13145	158.025381833494	19
1	13165	158.384940582726	18
1	13199	159.155693154444	19
1	13206	159.300505072985	20
1	13218	159.371963570693	21
1	13219	159.384940582726	20
1	13260	160.208655745445	21
1	13276	160.371963570693	22
1	13277	160.384940582726	21
1	13281	160.385940582726	20
1	13334	161.371963570693	21
1	13335	161.385940582726	20
1	13369	161.638339552844	21
1	13372	161.687845530429	22
1	13379	162.062771755404	23
1	13398	162.385940582726	22
1	13404	162.500690862997	23
1	13423	162.71140443843	24
1	13427	162.739310227557	25
1	13466	163.385940582726	24
1	13472	163.419356570088	25
1	13505	164.041103032388	26
1	13508	164.122738560997	27
1	13524	164.385940582726	26
1	13555	164.679481142199	27
1	13559	165.041103032388	28
1	13572	165.385940582726	27
1	13576	165.386940582726	26
1	13597	165.690396308527	27
1	13686	165.971946620184	28
1	13702	166.386940582726	27
1	13740	167.222973829641	28
1	13749	167.386940582726	27
1	13753	167.387940582726	26
1	13780	167.733329659061	27
1	13808	168.387940582726	26
1	13850	169.387940582726	25
1	13854	169.388940582726	24
1	13857	169.389940582726	23
1	13860	169.390940582726	22
1	13871	169.459323548455	23
1	13917	170.390940582726	22
1	13921	170.391940582726	21
1	13949	170.551889908004	22
1	13977	171.389380091901	23
1	13978	171.391940582726	22
1	13985	171.422386915579	23
1	14024	172.391940582726	22
1	14053	172.635856458278	23
1	14072	173.391940582726	22
1	14078	173.39979403487	23
1	14081	173.470442941453	24
1	14104	173.635856458278	25
1	14127	174.391940582726	24
1	14177	175.391940582726	23
1	14183	175.483472553227	24
1	14206	176.170973673466	25
1	14219	176.391940582726	24
1	14248	177.170973673466	25
1	14257	177.391940582726	24
1	14302	178.391940582726	23
1	14328	178.684025925183	24
1	14351	179.391940582726	23
1	14444	179.684025925183	24
1	14448	179.685025925183	25
1	14472	180.391940582726	24
1	14500	180.692756112081	25
1	14503	180.782948665776	26
1	14538	181.391940582726	25
1	14591	182.391940582726	24
1	14640	183.391940582726	23
1	14698	184.391940582726	22
1	14704	184.511395292296	23
1	14751	185.391940582726	22
1	14757	185.406220167611	23
1	14788	186.056717450672	24
1	14792	186.122164051913	25
1	14871	186.391940582726	24
1	14964	187.122164051913	25
1	14968	187.123164051913	26
1	14972	187.124164051913	27
1	15005	187.391940582726	26
1	15087	188.391940582726	25
1	15091	188.392940582726	24
1	15125	188.678134899076	25
1	15154	189.392940582726	24
1	15191	190.342855472396	25
1	15200	190.392940582726	24
1	15206	190.453115038524	25
1	15247	191.392940582726	24
1	15272	191.872267650405	25
1	15291	192.392940582726	24
1	15326	192.903502494023	25
1	15526	193.392940582726	24
1	15557	193.6587398305	25
1	15560	193.899834891351	26
1	15564	193.903502494023	27
1	15576	194.392940582726	26
1	15605	194.903502494023	27
1	15609	194.904502494023	28
1	15613	194.905502494023	29
1	15619	195.245414412509	30
1	15628	195.392940582726	29
1	15667	196.392940582726	28
1	15689	196.546352440755	29
1	15698	197.024614013374	30
1	15702	197.213844917763	31
1	15716	197.392940582726	30
1	15747	197.79514243327	31
1	15771	198.392940582726	30
1	15796	198.852566415334	31
1	15820	199.392940582726	30
1	15842	199.552862930679	31
1	15845	199.593183859944	32
2	7	0.529738708706	1
2	11	1.007272919969	1
2	15	1.08767700364	1
2	31	1.732676077392	1
2	58	2.861687247361	1
2	74	3.348040582726	1
2	122	4.348040582726	1
2	162	5.348040582726	1
2	205	6.348040582726	1
2	219	6.759068376134	1
2	250	7.348040582726	1
2	301	8.348040582726	1
2	352	9.180071488473	1
2	360	9.348040582726	1
2	396	10.336323476174	1
2	404	10.348040582726	1
2	440	11.139672056516	1
2	455	11.348040582726	1
2	504	12.348040582726	1
2	572	13.348040582726	1
2	575	13.372054295144	1
2	633	14.348040582726	1
2	677	15.089762727194	1
2	688	15.348040582726	1
2	741	16.348040582726	1
2	765	16.73813142852	1
2	793	17.348040582726	1
2	839	18.348040582726	1
2	879	18.821695463207	1
2	950	19.348040582726	1
2	1035	20.333724331337	1
2	1047	20.348040582726	1
2	1072	21.136321346962	1
2	1090	21.348040582726	1
2	1142	22.348040582726	1
2	1195	22.601617458068	1
2	1205	22.929938352829	1
2	1233	23.348040582726	1
2	1247	23.619959289439	1
2	1287	24.348040582726	1
2	1327	25.348040582726	1
2	1357	26.348040582726	1
2	1360	26.349687668366	1
2	1449	27.348040582726	1
2	1452	27.418563058366	1
2	1455	27.448848250585	1
2	1462	27.508812699172	1
2	1489	28.348040582726	1
2	1492	28.383130282472	1
2	1557	29.348040582726	1
2	1635	30.348040582726	1
2	1679	31.348040582726	1
2	1721	32.348040582726	1
2	1778	33.348040582726	1
2	1825	34.22048546674	1
2	1831	34.234586592736	1
2	1839	34.348040582726	1
2	1883	35.348040582726	1
2	1951	36.348040582726	1
2	1993	37.005578069239	1
2	2026	37.348040582726	1
2	2100	38.348040582726	1
2	2202	39.348040582726	1
2	2252	39.654189677859	1
2	2287	40.348040582726	1
2	2379	41.348040582726	1
2	2469	42.348040582726	1
2	2515	43.04979004165	1
2	2531	43.348040582726	1
2	2616	44.348040582726	1
2	2663	45.235017879496	1
2	2679	45.348040582726	1
2	2736	46.348040582726	1
2	2788	47.348040582726	1
2	2913	48.348040582726	1
2	2920	48.437263554471	1
2	2964	49.190729751862	1
2	2967	49.219799423884	1
2	2979	49.348040582726	1
2	3033	50.17249099733	1
2	3045	50.348040582726	1
2	3081	50.897944527214	1
2	3170	51.348040582726	1
2	3304	52.348040582726	1
2	3378	53.348040582726	1
2	3450	54.05911593464	1
2	3533	54.348040582726	1
2	3648	55.348040582726	1
2	3716	56.348040582726	1
2	3844	57.349040582726	1
2	3901	58.349040582726	1
2	4023	59.349040582726	1
2	4083	60.349040582726	1