version 3
run General-0-20250529-00:11:25-33312
attr configname General
attr datetime 20250529-00:11:25
attr datetimef 20250529-001125
attr experiment General
attr inifile omnetpp.ini
attr iterationvars ""
attr iterationvarsd ""
attr iterationvarsf ""
attr measurement ""
attr network Network
attr processid 33312
attr repetition 0
attr replication #0
attr resultdir results
attr runnumber 0
attr seedset 0
config network Network
config sim-time-limit 200s
config "Network.node[{0, 1, 2, 3, 4, 6, 7}].app.interArrivalTime" exponential(2)
config "Network.node[{0, 1, 2, 3, 4, 6, 7}].app.packetByteSize" 125000
config "Network.node[{0, 1, 2, 3, 4, 6, 7}].app.destination" 5
config Network.node[{5}].net.interFeedBackTime exponential(3)

vector 0 Network.node[7].lnk[0] "Lnk use" ETV
vector 1 Network.node[7].lnk[0] "Buffer Size" ETV
vector 2 Network.node[6].lnk[0] "Lnk use" ETV
vector 3 Network.node[6].lnk[0] "Buffer Size" ETV
vector 4 Network.node[6].lnk[1] "Lnk use" ETV
vector 5 Network.node[5].lnk[1] "Lnk use" ETV
vector 6 Network.node[5].app "Delay Source 6" ETV
vector 7 Network.node[5].app "HopCount Source 6" ETV
vector 8 Network.node[0].lnk[0] "Lnk use" ETV
vector 9 Network.node[0].lnk[0] "Buffer Size" ETV
vector 10 Network.node[4].lnk[0] "Lnk use" ETV
vector 11 Network.node[4].lnk[0] "Buffer Size" ETV
vector 12 Network.node[5].app "Delay Source 7" ETV
vector 13 Network.node[5].app "HopCount Source 7" ETV
vector 14 Network.node[7].lnk[1] "Lnk use" ETV
vector 15 Network.node[3].lnk[1] "Lnk use" ETV
vector 16 Network.node[3].lnk[0] "Lnk use" ETV
vector 17 Network.node[3].lnk[0] "Buffer Size" ETV
vector 18 Network.node[5].lnk[0] "Lnk use" ETV
vector 19 Network.node[5].lnk[0] "Buffer Size" ETV
vector 20 Network.node[4].lnk[1] "Lnk use" ETV
vector 21 Network.node[1].lnk[0] "Lnk use" ETV
vector 22 Network.node[1].lnk[0] "Buffer Size" ETV
vector 23 Network.node[2].lnk[0] "Lnk use" ETV
vector 24 Network.node[2].lnk[0] "Buffer Size" ETV
vector 25 Network.node[2].lnk[1] "Lnk use" ETV
vector 26 Network.node[0].lnk[1] "Lnk use" ETV
vector 27 Network.node[1].lnk[1] "Lnk use" ETV
vector 28 Network.node[5].app "Delay Source 0" ETV
vector 29 Network.node[5].app "HopCount Source 0" ETV
vector 30 Network.node[5].app "Delay Source 1" ETV
vector 31 Network.node[5].app "HopCount Source 1" ETV
vector 32 Network.node[7].lnk[1] "Buffer Size" ETV
vector 33 Network.node[5].app "Delay Source 2" ETV
vector 34 Network.node[5].app "HopCount Source 2" ETV
vector 35 Network.node[0].lnk[1] "Buffer Size" ETV
vector 36 Network.node[1].lnk[1] "Buffer Size" ETV
vector 37 Network.node[6].lnk[1] "Buffer Size" ETV
vector 38 Network.node[2].lnk[1] "Buffer Size" ETV
vector 39 Network.node[3].lnk[1] "Buffer Size" ETV
vector 40 Network.node[4].lnk[1] "Buffer Size" ETV
vector 41 Network.node[5].app "Delay Source 4" ETV
vector 42 Network.node[5].app "HopCount Source 4" ETV
vector 43 Network.node[5].app "Delay Source 3" ETV
vector 44 Network.node[5].app "HopCount Source 3" ETV
vector 45 Network.node[5].lnk[1] "Buffer Size" ETV
0	3	0.116769338186	1
0	39	2.797220776968	1
0	161	5.719408424149	1
0	204	6.719408424149	1
0	212	6.746593898043	1
0	247	7.719408424149	1
0	284	8.719408424149	1
0	322	9.719408424149	1
0	361	10.719408424149	1
0	393	10.828378329866	1
0	408	11.080127148742	1
0	436	11.719408424149	1
0	450	11.720408424149	1
0	486	12.721408424149	1
0	524	13.721408424149	1
0	637	14.721408424149	1
0	723	15.721408424149	1
0	851	16.721408424149	1
0	887	17.307350680084	1
0	929	17.721408424149	1
0	1036	18.721408424149	1
0	1050	19.201344034434	1
0	1203	19.721408424149	1
0	1287	20.350408847916	1
0	1319	20.721408424149	1
0	1350	21.350408847916	1
0	1381	21.721408424149	1
0	1453	22.721408424149	1
0	1594	23.721408424149	1
0	1702	24.721408424149	1
0	1706	24.722408424149	1
0	1959	25.723408424149	1
0	2010	26.723408424149	1
0	2067	27.723408424149	1
0	2234	28.723408424149	1
0	2396	29.723408424149	1
0	2461	30.723408424149	1
0	2531	31.723408424149	1
0	2583	32.723408424149	1
0	2702	33.723408424149	1
0	2751	34.723408424149	1
0	2800	35.723408424149	1
0	2949	36.723408424149	1
0	3026	37.723408424149	1
0	3030	37.724408424149	1
0	3085	38.725408424149	1
0	3153	39.725408424149	1
0	3391	40.725408424149	1
0	3437	41.725408424149	1
0	3490	42.725408424149	1
0	3500	43.172010740732	1
0	3544	43.725408424149	1
0	3799	44.594506615166	1
0	3803	44.595506615166	1
0	3806	44.596506615166	1
0	3831	44.725408424149	1
0	3889	44.985613044849	1
0	3944	45.404946707696	1
0	3986	45.409605185531	1
0	4057	45.725408424149	1
0	4061	45.726408424149	1
0	4100	46.727408424149	1
0	4104	46.728408424149	1
0	4111	46.730408424149	1
0	4162	47.731408424149	1
0	4216	48.731408424149	1
0	4220	48.732408424149	1
0	4227	48.734408424149	1
0	4285	49.189406615858	1
0	4364	49.713138263183	1
0	4376	49.735408424149	1
0	4421	50.735408424149	1
0	4495	51.718655712303	1
0	4557	51.735408424149	1
0	4602	52.735408424149	1
0	4607	53.206597775909	1
0	4651	53.735408424149	1
0	4655	53.736408424149	1
0	4662	53.738408424149	1
0	4730	54.905039399038	1
0	4780	56.097798187697	1
0	4876	58.50227532219	1
0	4921	58.509856439886	1
0	4994	59.177061735741	1
0	5044	59.372087868096	1
0	5161	61.253384470352	1
0	5252	63.446722635707	1
0	5274	63.837203007953	1
0	5324	64.841824604475	1
0	5350	65.31152839652	1
0	5375	65.841824604475	1
0	5415	66.841824604475	1
0	5437	67.236278508062	1
0	5470	67.841824604475	1
0	5522	68.841824604475	1
0	5532	68.924055453244	1
0	5617	69.841824604475	1
0	5672	70.841824604475	1
0	5681	70.842824604475	1
0	5685	70.843824604475	1
0	5689	70.844824604475	1
0	5696	71.035754670563	1
0	5730	71.158030730611	1
0	5745	71.159030730611	1
0	5759	71.161030730611	1
0	5886	73.46826130925	1
0	5902	73.46926130925	1
0	5924	73.47126130925	1
0	5956	74.317549826417	1
0	6009	74.771298277081	1
0	6025	74.772298277081	1
0	6047	74.774298277081	1
0	6052	74.945430587411	1
0	6073	75.584475061862	1
0	6146	77.450645637234	1
0	6222	79.362578485079	1
0	6238	79.636292696069	1
0	6278	80.290496632313	1
0	6294	80.291496632313	1
0	6316	80.293496632313	1
0	6344	80.696298452342	1
0	6381	80.742869662895	1
0	6397	80.743869662895	1
0	6419	80.745869662895	1
0	6453	80.844230019551	1
0	6469	80.845230019551	1
0	6491	80.847230019551	1
0	6525	81.05925617249	1
0	6541	81.06025617249	1
0	6563	81.06225617249	1
0	6601	81.742038512519	1
0	6648	82.950636656214	1
0	6670	83.366551476131	1
0	6738	84.366551476131	1
0	6834	87.495922052909	1
0	6881	88.495922052909	1
0	6929	89.495922052909	1
0	6966	90.370557840022	1
0	6974	90.495922052909	1
0	7006	91.495922052909	1
0	7050	92.495922052909	1
0	7072	92.808151446709	1
0	7075	92.9115172583	1
0	7115	93.208796688904	1
0	7131	93.209796688904	1
0	7154	93.211796688904	1
0	7167	93.495922052909	1
0	7226	94.023800899931	1
0	7242	94.024800899931	1
0	7265	94.026800899931	1
0	7282	94.495922052909	1
0	7300	94.633364531661	1
0	7332	95.495922052909	1
0	7367	96.495922052909	1
0	7373	96.537023946745	1
0	7405	97.495922052909	1
0	7443	98.495922052909	1
0	7496	99.495922052909	1
0	7531	100.495922052909	1
0	7575	101.495922052909	1
0	7638	102.18784566767	1
0	7650	102.18884566767	1
0	7661	102.18984566767	1
0	7684	102.19184566767	1
0	7701	102.495922052909	1
0	7733	103.212892614453	1
0	7748	103.495922052909	1
0	7805	104.19518683874	1
0	7817	104.19618683874	1
0	7828	104.19718683874	1
0	7851	104.19918683874	1
0	7865	104.495922052909	1
0	7912	105.495922052909	1
0	7947	106.495922052909	1
0	7981	106.541114001367	1
0	7993	106.542114001367	1
0	8004	106.543114001367	1
0	8027	106.545114001367	1
0	8064	107.495922052909	1
0	8131	108.354857656373	1
0	8143	108.355857656373	1
0	8154	108.356857656373	1
0	8177	108.358857656373	1
0	8190	108.495922052909	1
0	8231	109.495922052909	1
0	8278	110.495922052909	1
0	8299	110.706281842104	1
0	8321	111.477657230194	1
0	8326	111.495922052909	1
0	8364	112.495922052909	1
0	8402	113.495922052909	1
0	8408	113.553357381172	1
0	8446	114.495922052909	1
0	8499	115.495922052909	1
0	8505	115.536365966966	1
0	8530	115.947061504437	1
0	8540	116.495922052909	1
0	8565	117.165150729855	1
0	8574	117.495922052909	1
0	8612	118.486156889353	1
0	8617	118.495922052909	1
0	8648	119.495922052909	1
0	8689	120.495922052909	1
0	8722	121.111172875284	1
0	8725	121.16316836567	1
0	8730	121.495922052909	1
0	8788	122.273815235494	1
0	8798	122.274815235494	1
0	8811	122.275815235494	1
0	8824	122.276815235494	1
0	8852	122.278815235494	1
0	8879	122.495922052909	1
0	8913	123.495922052909	1
0	8931	123.649869921567	1
0	8963	123.932330347449	1
0	8973	123.933330347449	1
0	8986	123.934330347449	1
0	8999	123.935330347449	1
0	9027	123.937330347449	1
0	9053	124.30030195752	1
0	9064	124.495922052909	1
0	9098	125.495922052909	1
0	9142	126.495922052909	1
0	9170	126.583687315548	1
0	9180	126.584687315548	1
0	9193	126.585687315548	1
0	9206	126.586687315548	1
0	9234	126.588687315548	1
0	9273	127.049661865124	1
0	9289	127.495922052909	1
0	9355	128.449798072792	1
0	9365	128.450798072792	1
0	9378	128.451798072792	1
0	9391	128.452798072792	1
0	9419	128.454798072792	1
0	9444	128.495922052909	1
0	9494	129.495922052909	1
0	9532	130.495922052909	1
0	9554	130.720188671003	1
0	9579	131.495922052909	1
0	9611	132.326972196337	1
0	9620	132.495922052909	1
0	9648	133.003281626026	1
0	9658	133.214655974235	1
0	9667	133.247788163078	1
0	9670	133.266354211834	1
0	9679	133.495922052909	1
0	9717	134.495922052909	1
0	9749	135.483173720262	1
0	9758	135.495922052909	1
0	9793	136.495922052909	1
0	9837	136.911705918037	1
0	9847	136.912705918037	1
0	9860	136.913705918037	1
0	9873	136.914705918037	1
0	9901	136.916705918037	1
0	9936	137.495922052909	1
0	9968	137.513032503294	1
0	9978	137.514032503294	1
0	9991	137.515032503294	1
0	10004	137.516032503294	1
0	10032	137.518032503294	1
0	10064	137.914554666979	1
0	10076	138.495922052909	1
0	10127	139.495922052909	1
0	10169	140.495922052909	1
0	10191	141.012578025289	1
0	10204	141.495922052909	1
0	10239	142.495922052909	1
0	10274	143.495922052909	1
0	10312	144.495922052909	1
0	10347	145.495922052909	1
0	10387	146.495922052909	1
0	10405	146.68585841204	1
0	10431	147.495922052909	1
0	10466	148.495922052909	1
0	10472	148.60988226522	1
0	10520	148.895103852557	1
0	10530	148.896103852557	1
0	10543	148.897103852557	1
0	10556	148.898103852557	1
0	10584	148.900103852557	1
0	10600	148.930550454193	1
0	10609	149.495922052909	1
0	10650	150.495922052909	1
0	10687	151.495922052909	1
0	10728	152.495922052909	1
0	10781	153.495922052909	1
0	10828	154.495922052909	1
0	10862	155.495922052909	1
0	10900	156.495922052909	1
0	10930	157.334269306688	1
0	10935	157.495922052909	1
0	10964	158.394192465232	1
0	10969	158.495922052909	1
0	10998	159.284491144045	1
0	11003	159.495922052909	1
0	11035	160.304472811744	1
0	11040	160.495922052909	1
0	11091	160.91895281718	1
0	11101	160.91995281718	1
0	11114	160.92095281718	1
0	11127	160.92195281718	1
0	11155	160.92395281718	1
0	11184	161.350408119056	1
0	11195	161.495922052909	1
0	11242	162.495922052909	1
0	11285	163.495922052909	1
0	11323	164.495922052909	1
0	11361	165.495922052909	1
0	11401	166.495922052909	1
0	11462	167.46012767707	1
0	11467	167.495922052909	1
0	11503	168.090447734502	1
0	11520	168.495922052909	1
0	11560	168.738668224143	1
0	11570	168.739668224143	1
0	11583	168.740668224143	1
0	11596	168.741668224143	1
0	11624	168.743668224143	1
0	11664	169.495922052909	1
0	11706	169.65058290183	1
0	11719	169.65158290183	1
0	11732	169.65258290183	1
0	11745	169.65358290183	1
0	11773	169.65558290183	1
0	11800	169.883106144543	1
0	11820	170.495922052909	1
0	11826	170.549912821294	1
0	11888	171.400854214936	1
0	11898	171.401854214936	1
0	11911	171.402854214936	1
0	11924	171.403854214936	1
0	11952	171.405854214936	1
0	11974	171.495922052909	1
0	11980	171.505748796316	1
0	11983	171.622804594209	1
0	12016	171.671865947181	1
0	12026	171.672865947181	1
0	12039	171.673865947181	1
0	12052	171.674865947181	1
0	12080	171.676865947181	1
0	12127	172.495922052909	1
0	12162	173.495922052909	1
0	12183	173.780658411208	1
0	12197	174.381308571779	1
0	12209	174.495922052909	1
0	12266	175.253906058967	1
0	12276	175.254906058967	1
0	12289	175.255906058967	1
0	12302	175.256906058967	1
0	12333	175.258906058967	1
0	12353	175.317521478249	1
0	12362	175.495922052909	1
0	12383	175.756457800037	1
0	12412	176.495922052909	1
0	12448	176.644076141587	1
0	12458	176.645076141587	1
0	12471	176.646076141587	1
0	12484	176.647076141587	1
0	12512	176.649076141587	1
0	12558	176.884312709419	1
0	12568	176.885312709419	1
0	12581	176.886312709419	1
0	12594	176.887312709419	1
0	12622	176.889312709419	1
0	12642	176.988296367605	1
0	12659	177.495922052909	1
0	12689	178.45138704587	1
0	12697	178.495922052909	1
0	12744	178.786109088894	1
0	12754	178.787109088894	1
0	12767	178.788109088894	1
0	12780	178.789109088894	1
0	12808	178.791109088894	1
0	12836	179.184289629535	1
0	12844	179.495922052909	1
0	12907	180.392322142174	1
0	12917	180.393322142174	1
0	12930	180.394322142174	1
0	12943	180.395322142174	1
0	12971	180.397322142174	1
0	12993	180.495922052909	1
0	13033	181.495922052909	1
0	13071	182.495922052909	1
0	13121	182.831017225731	1
0	13131	182.832017225731	1
0	13144	182.833017225731	1
0	13157	182.834017225731	1
0	13185	182.836017225731	1
0	13225	183.495922052909	1
0	13301	184.327094224341	1
0	13311	184.328094224341	1
0	13324	184.329094224341	1
0	13337	184.330094224341	1
0	13365	184.332094224341	1
0	13387	184.495922052909	1
0	13428	185.495922052909	1
0	13437	185.593907288758	1
0	13466	186.495922052909	1
0	13501	187.495922052909	1
0	13542	188.495922052909	1
0	13586	189.495922052909	1
0	13608	189.787179835803	1
0	13631	190.495922052909	1
0	13671	190.739359295593	1
0	13681	190.740359295593	1
0	13694	190.741359295593	1
0	13707	190.742359295593	1
0	13735	190.744359295593	1
0	13784	191.495922052909	1
0	13816	192.30646217705	1
0	13824	192.495922052909	1
0	13849	192.836648379864	1
0	13862	193.495922052909	1
0	13903	194.495922052909	1
0	13946	194.682925589846	1
0	13956	194.683925589846	1
0	13969	194.684925589846	1
0	13982	194.685925589846	1
0	14010	194.687925589846	1
0	14050	195.495922052909	1
0	14085	196.495922052909	1
0	14123	197.495922052909	1
0	14158	197.598958263032	1
0	14168	197.599958263032	1
0	14181	197.600958263032	1
0	14194	197.601958263032	1
0	14222	197.603958263032	1
0	14264	198.495922052909	1
0	14299	198.982798825435	1
0	14317	199.495922052909	1
1	3	0.116769338186	1
1	4	0.116769338186	0
1	39	2.797220776968	1
1	40	2.797220776968	0
1	161	5.719408424149	1
1	162	5.719408424149	0
1	204	6.719408424149	1
1	205	6.719408424149	0
1	212	6.746593898043	1
1	245	7.719408424149	0
1	247	7.719408424149	1
1	282	8.719408424149	0
1	284	8.719408424149	1
1	320	9.719408424149	0
1	322	9.719408424149	1
1	359	10.719408424149	0
1	361	10.719408424149	1
1	393	10.828378329866	2
1	408	11.080127148742	3
1	434	11.719408424149	2
1	436	11.719408424149	3
1	450	11.720408424149	4
1	475	12.719408424149	3
1	486	12.721408424149	4
1	513	13.719408424149	3
1	524	13.721408424149	4
1	626	14.719408424149	3
1	637	14.721408424149	4
1	709	15.719408424149	3
1	717	15.720408424149	2
1	723	15.721408424149	3
1	844	16.720408424149	2
1	851	16.721408424149	3
1	922	17.720408424149	2
1	929	17.721408424149	3
1	1029	18.720408424149	2
1	1036	18.721408424149	3
1	1196	19.720408424149	2
1	1203	19.721408424149	3
1	1312	20.720408424149	2
1	1319	20.721408424149	3
1	1374	21.720408424149	2
1	1381	21.721408424149	3
1	1446	22.720408424149	2
1	1453	22.721408424149	3
1	1587	23.720408424149	2
1	1594	23.721408424149	3
1	1695	24.720408424149	2
1	1702	24.721408424149	3
1	1706	24.722408424149	4
1	1952	25.720408424149	3
1	1959	25.723408424149	4
1	2003	26.720408424149	3
1	2010	26.723408424149	4
1	2060	27.720408424149	3
1	2067	27.723408424149	4
1	2224	28.720408424149	3
1	2228	28.721408424149	2
1	2234	28.723408424149	3
1	2389	29.721408424149	2
1	2396	29.723408424149	3
1	2454	30.721408424149	2
1	2461	30.723408424149	3
1	2524	31.721408424149	2
1	2531	31.723408424149	3
1	2576	32.721408424149	2
1	2583	32.723408424149	3
1	2695	33.721408424149	2
1	2702	33.723408424149	3
1	2744	34.721408424149	2
1	2751	34.723408424149	3
1	2793	35.721408424149	2
1	2800	35.723408424149	3
1	2942	36.721408424149	2
1	2949	36.723408424149	3
1	3019	37.721408424149	2
1	3026	37.723408424149	3
1	3030	37.724408424149	4
1	3078	38.721408424149	3
1	3085	38.725408424149	4
1	3146	39.721408424149	3
1	3153	39.725408424149	4
1	3384	40.721408424149	3
1	3391	40.725408424149	4
1	3427	41.721408424149	3
1	3431	41.722408424149	2
1	3437	41.725408424149	3
1	3483	42.722408424149	2
1	3490	42.725408424149	3
1	3537	43.722408424149	2
1	3544	43.725408424149	3
1	3824	44.722408424149	2
1	3831	44.725408424149	3
1	3944	45.404946707696	4
1	4050	45.722408424149	3
1	4057	45.725408424149	4
1	4061	45.726408424149	5
1	4093	46.722408424149	4
1	4100	46.727408424149	5
1	4104	46.728408424149	6
1	4111	46.730408424149	7
1	4155	47.722408424149	6
1	4162	47.731408424149	7
1	4206	48.722408424149	6
1	4216	48.731408424149	7
1	4220	48.732408424149	8
1	4227	48.734408424149	9
1	4364	49.713138263183	10
1	4369	49.722408424149	9
1	4376	49.735408424149	10
1	4411	50.722408424149	9
1	4415	50.723408424149	8
1	4421	50.735408424149	9
1	4544	51.723408424149	8
1	4548	51.724408424149	7
1	4551	51.725408424149	6
1	4557	51.735408424149	7
1	4595	52.725408424149	6
1	4602	52.735408424149	7
1	4638	53.725408424149	6
1	4642	53.726408424149	5
1	4645	53.727408424149	4
1	4651	53.735408424149	5
1	4655	53.736408424149	6
1	4662	53.738408424149	7
1	4725	54.727408424149	6
1	4765	55.727408424149	5
1	4814	56.727408424149	4
1	4853	57.727408424149	3
1	4985	58.727408424149	2
1	4994	59.177061735741	3
1	5112	59.727408424149	2
1	5116	59.728408424149	1
1	5119	59.729408424149	0
1	5252	63.446722635707	1
1	5253	63.446722635707	0
1	5350	65.31152839652	1
1	5351	65.31152839652	0
1	5437	67.236278508062	1
1	5438	67.236278508062	0
1	5532	68.924055453244	1
1	5533	68.924055453244	0
1	5696	71.035754670563	1
1	5697	71.035754670563	0
1	5956	74.317549826417	1
1	5957	74.317549826417	0
1	6052	74.945430587411	1
1	6067	75.317549826417	0
1	6073	75.584475061862	1
1	6107	76.317549826417	0
1	6146	77.450645637234	1
1	6147	77.450645637234	0
1	6222	79.362578485079	1
1	6223	79.362578485079	0
1	6238	79.636292696069	1
1	6326	80.362578485079	0
1	6344	80.696298452342	1
1	6576	81.362578485079	0
1	6601	81.742038512519	1
1	6616	82.362578485079	0
1	6648	82.950636656214	1
1	6663	83.362578485079	0
1	6670	83.366551476131	1
1	6731	84.362578485079	0
1	6738	84.366551476131	1
1	6765	85.362578485079	0
1	6834	87.495922052909	1
1	6835	87.495922052909	0
1	6881	88.495922052909	1
1	6882	88.495922052909	0
1	6929	89.495922052909	1
1	6930	89.495922052909	0
1	6966	90.370557840022	1
1	6972	90.495922052909	0
1	6974	90.495922052909	1
1	7004	91.495922052909	0
1	7006	91.495922052909	1
1	7048	92.495922052909	0
1	7050	92.495922052909	1
1	7072	92.808151446709	2
1	7075	92.9115172583	3
1	7165	93.495922052909	2
1	7167	93.495922052909	3
1	7280	94.495922052909	2
1	7282	94.495922052909	3
1	7300	94.633364531661	4
1	7330	95.495922052909	3
1	7332	95.495922052909	4
1	7365	96.495922052909	3
1	7367	96.495922052909	4
1	7373	96.537023946745	5
1	7403	97.495922052909	4
1	7405	97.495922052909	5
1	7441	98.495922052909	4
1	7443	98.495922052909	5
1	7494	99.495922052909	4
1	7496	99.495922052909	5
1	7529	100.495922052909	4
1	7531	100.495922052909	5
1	7573	101.495922052909	4
1	7575	101.495922052909	5
1	7699	102.495922052909	4
1	7701	102.495922052909	5
1	7733	103.212892614453	6
1	7746	103.495922052909	5
1	7748	103.495922052909	6
1	7863	104.495922052909	5
1	7865	104.495922052909	6
1	7910	105.495922052909	5
1	7912	105.495922052909	6
1	7945	106.495922052909	5
1	7947	106.495922052909	6
1	8062	107.495922052909	5
1	8064	107.495922052909	6
1	8188	108.495922052909	5
1	8190	108.495922052909	6
1	8229	109.495922052909	5
1	8231	109.495922052909	6
1	8276	110.495922052909	5
1	8278	110.495922052909	6
1	8299	110.706281842104	7
1	8321	111.477657230194	8
1	8324	111.495922052909	7
1	8326	111.495922052909	8
1	8362	112.495922052909	7
1	8364	112.495922052909	8
1	8400	113.495922052909	7
1	8402	113.495922052909	8
1	8408	113.553357381172	9
1	8444	114.495922052909	8
1	8446	114.495922052909	9
1	8497	115.495922052909	8
1	8499	115.495922052909	9
1	8505	115.536365966966	10
1	8530	115.947061504437	11
1	8538	116.495922052909	10
1	8540	116.495922052909	11
1	8565	117.165150729855	12
1	8572	117.495922052909	11
1	8574	117.495922052909	12
1	8612	118.486156889353	13
1	8615	118.495922052909	12
1	8617	118.495922052909	13
1	8646	119.495922052909	12
1	8648	119.495922052909	13
1	8687	120.495922052909	12
1	8689	120.495922052909	13
1	8722	121.111172875284	14
1	8725	121.16316836567	15
1	8728	121.495922052909	14
1	8730	121.495922052909	15
1	8877	122.495922052909	14
1	8879	122.495922052909	15
1	8911	123.495922052909	14
1	8913	123.495922052909	15
1	8931	123.649869921567	16
1	9053	124.30030195752	17
1	9062	124.495922052909	16
1	9064	124.495922052909	17
1	9096	125.495922052909	16
1	9098	125.495922052909	17
1	9140	126.495922052909	16
1	9142	126.495922052909	17
1	9273	127.049661865124	18
1	9287	127.495922052909	17
1	9289	127.495922052909	18
1	9442	128.495922052909	17
1	9444	128.495922052909	18
1	9492	129.495922052909	17
1	9494	129.495922052909	18
1	9530	130.495922052909	17
1	9532	130.495922052909	18
1	9554	130.720188671003	19
1	9577	131.495922052909	18
1	9579	131.495922052909	19
1	9611	132.326972196337	20
1	9618	132.495922052909	19
1	9620	132.495922052909	20
1	9648	133.003281626026	21
1	9658	133.214655974235	22
1	9667	133.247788163078	23
1	9670	133.266354211834	24
1	9677	133.495922052909	23
1	9679	133.495922052909	24
1	9715	134.495922052909	23
1	9717	134.495922052909	24
1	9749	135.483173720262	25
1	9756	135.495922052909	24
1	9758	135.495922052909	25
1	9791	136.495922052909	24
1	9793	136.495922052909	25
1	9934	137.495922052909	24
1	9936	137.495922052909	25
1	10064	137.914554666979	26
1	10074	138.495922052909	25
1	10076	138.495922052909	26
1	10125	139.495922052909	25
1	10127	139.495922052909	26
1	10167	140.495922052909	25
1	10169	140.495922052909	26
1	10191	141.012578025289	27
1	10202	141.495922052909	26
1	10204	141.495922052909	27
1	10237	142.495922052909	26
1	10239	142.495922052909	27
1	10272	143.495922052909	26
1	10274	143.495922052909	27
1	10310	144.495922052909	26
1	10312	144.495922052909	27
1	10345	145.495922052909	26
1	10347	145.495922052909	27
1	10385	146.495922052909	26
1	10387	146.495922052909	27
1	10405	146.68585841204	28
1	10429	147.495922052909	27
1	10431	147.495922052909	28
1	10464	148.495922052909	27
1	10466	148.495922052909	28
1	10472	148.60988226522	29
1	10600	148.930550454193	30
1	10607	149.495922052909	29
1	10609	149.495922052909	30
1	10648	150.495922052909	29
1	10650	150.495922052909	30
1	10685	151.495922052909	29
1	10687	151.495922052909	30
1	10726	152.495922052909	29
1	10728	152.495922052909	30
1	10779	153.495922052909	29
1	10781	153.495922052909	30
1	10826	154.495922052909	29
1	10828	154.495922052909	30
1	10860	155.495922052909	29
1	10862	155.495922052909	30
1	10898	156.495922052909	29
1	10900	156.495922052909	30
1	10930	157.334269306688	31
1	10933	157.495922052909	30
1	10935	157.495922052909	31
1	10964	158.394192465232	32
1	10967	158.495922052909	31
1	10969	158.495922052909	32
1	10998	159.284491144045	33
1	11001	159.495922052909	32
1	11003	159.495922052909	33
1	11035	160.304472811744	34
1	11038	160.495922052909	33
1	11040	160.495922052909	34
1	11184	161.350408119056	35
1	11193	161.495922052909	34
1	11195	161.495922052909	35
1	11240	162.495922052909	34
1	11242	162.495922052909	35
1	11283	163.495922052909	34
1	11285	163.495922052909	35
1	11321	164.495922052909	34
1	11323	164.495922052909	35
1	11359	165.495922052909	34
1	11361	165.495922052909	35
1	11399	166.495922052909	34
1	11401	166.495922052909	35
1	11462	167.46012767707	36
1	11465	167.495922052909	35
1	11467	167.495922052909	36
1	11503	168.090447734502	37
1	11518	168.495922052909	36
1	11520	168.495922052909	37
1	11662	169.495922052909	36
1	11664	169.495922052909	37
1	11800	169.883106144543	38
1	11818	170.495922052909	37
1	11820	170.495922052909	38
1	11826	170.549912821294	39
1	11972	171.495922052909	38
1	11974	171.495922052909	39
1	11980	171.505748796316	40
1	11983	171.622804594209	41
1	12125	172.495922052909	40
1	12127	172.495922052909	41
1	12160	173.495922052909	40
1	12162	173.495922052909	41
1	12183	173.780658411208	42
1	12197	174.381308571779	43
1	12207	174.495922052909	42
1	12209	174.495922052909	43
1	12353	175.317521478249	44
1	12360	175.495922052909	43
1	12362	175.495922052909	44
1	12383	175.756457800037	45
1	12410	176.495922052909	44
1	12412	176.495922052909	45
1	12642	176.988296367605	46
1	12657	177.495922052909	45
1	12659	177.495922052909	46
1	12689	178.45138704587	47
1	12695	178.495922052909	46
1	12697	178.495922052909	47
1	12836	179.184289629535	48
1	12842	179.495922052909	47
1	12844	179.495922052909	48
1	12991	180.495922052909	47
1	12993	180.495922052909	48
1	13031	181.495922052909	47
1	13033	181.495922052909	48
1	13069	182.495922052909	47
1	13071	182.495922052909	48
1	13223	183.495922052909	47
1	13225	183.495922052909	48
1	13385	184.495922052909	47
1	13387	184.495922052909	48
1	13426	185.495922052909	47
1	13428	185.495922052909	48
1	13437	185.593907288758	49
1	13464	186.495922052909	48
1	13466	186.495922052909	49
1	13499	187.495922052909	48
1	13501	187.495922052909	49
1	13540	188.495922052909	48
1	13542	188.495922052909	49
1	13584	189.495922052909	48
1	13586	189.495922052909	49
1	13608	189.787179835803	50
1	13629	190.495922052909	49
1	13631	190.495922052909	50
1	13782	191.495922052909	49
1	13784	191.495922052909	50
1	13816	192.30646217705	51
1	13822	192.495922052909	50
1	13824	192.495922052909	51
1	13849	192.836648379864	52
1	13860	193.495922052909	51
1	13862	193.495922052909	52
1	13901	194.495922052909	51
1	13903	194.495922052909	52
1	14048	195.495922052909	51
1	14050	195.495922052909	52
1	14083	196.495922052909	51
1	14085	196.495922052909	52
1	14121	197.495922052909	51
1	14123	197.495922052909	52
1	14262	198.495922052909	51
1	14264	198.495922052909	52
1	14299	198.982798825435	53
1	14315	199.495922052909	52
1	14317	199.495922052909	53
2	7	0.706318278275	1
2	12	1.116869338186	1
2	15	1.343030559959	1
2	31	2.310234769856	1
2	82	3.797320776968	1
2	85	3.815582996482	1
2	208	6.719508424149	1
2	251	7.719508424149	1
2	288	8.719508424149	1
2	313	9.01209116818	1
2	326	9.719508424149	1
2	352	10.249950087433	1
2	365	10.719508424149	1
2	440	11.719508424149	1
2	446	11.719878929813	1
2	479	12.719508424149	1
2	501	13.464521319897	1
2	517	13.719508424149	1
2	630	14.719508424149	1
2	713	15.719508424149	1
2	847	16.720508424149	1
2	925	17.720508424149	1
2	1032	18.720508424149	1
2	1199	19.720508424149	1
2	1315	20.720508424149	1
2	1377	21.720508424149	1
2	1449	22.720508424149	1
2	1590	23.720508424149	1
2	1698	24.720508424149	1
2	1726	24.793857776484	1
2	1870	25.321598412761	1
2	1955	25.720508424149	1
2	1986	26.559858668375	1
2	2006	26.720508424149	1
2	2043	27.629988022542	1
2	2063	27.720508424149	1
2	2118	27.937345973638	1
2	2227	28.720508424149	1
2	2289	29.174849663405	1
2	2372	29.583716170683	1
2	2392	29.721508424149	1
2	2457	30.721508424149	1
2	2527	31.721508424149	1
2	2579	32.721508424149	1
2	2625	33.694755663223	1
2	2698	33.721508424149	1
2	2747	34.721508424149	1
2	2776	35.558095954387	1
2	2796	35.721508424149	1
2	2945	36.721508424149	1
2	2952	36.757989727669	1
2	3002	37.422810209596	1
2	3022	37.721508424149	1
2	3044	38.125162388359	1
2	3081	38.721508424149	1
2	3129	39.436454957086	1
2	3149	39.721508424149	1
2	3178	40.0107195656	1
2	3274	40.209611770047	1
2	3364	40.5062237086	1
2	3387	40.721508424149	1
2	3430	41.721508424149	1
2	3486	42.722508424149	1
2	3540	43.722508424149	1
2	3558	43.747180351243	1
2	3566	43.748180351243	1
2	3721	44.007491798262	1
2	3729	44.008491798262	1
2	3827	44.722508424149	1
2	3861	44.983513044849	1
2	3869	44.984513044849	1
2	3958	45.407505185531	1
2	3966	45.408505185531	1
2	4053	45.722508424149	1
2	4096	46.722508424149	1
2	4158	47.722508424149	1
2	4201	48.675015631083	1
2	4209	48.722508424149	1
2	4257	49.187306615858	1
2	4265	49.188306615858	1
2	4372	49.722508424149	1
2	4414	50.722508424149	1
2	4467	51.716555712303	1
2	4475	51.717555712303	1
2	4547	51.723508424149	1
2	4598	52.725508424149	1
2	4641	53.725508424149	1
2	4728	54.727508424149	1
2	4768	55.727508424149	1
2	4817	56.727508424149	1
2	4856	57.727508424149	1
2	4893	58.507756439886	1
2	4901	58.508756439886	1
2	4968	58.512212817699	1
2	4988	58.727508424149	1
2	5016	59.369987868096	1
2	5024	59.370987868096	1
2	5115	59.727508424149	1
2	5159	60.729508424149	1
2	5299	64.446822635707	1
2	5397	66.31162839652	1
2	5487	68.236378508062	1
2	5557	69.463099227249	1
2	5566	69.464099227249	1
2	5580	69.465099227249	1
2	5591	69.466099227249	1
2	5615	69.829224443707	1
2	5628	69.924155453244	1
2	5710	71.156930730611	1
2	5720	71.157930730611	1
2	5739	71.158930730611	1
2	5754	71.159930730611	1
2	5812	72.035854670563	1
2	5866	73.46716130925	1
2	5876	73.46816130925	1
2	5896	73.46916130925	1
2	5915	73.47016130925	1
2	5960	74.366492429092	1
2	5989	74.770198277081	1
2	5999	74.771198277081	1
2	6019	74.772198277081	1
2	6038	74.773198277081	1
2	6070	75.317649826417	1
2	6110	76.317649826417	1
2	6142	77.317649826417	1
2	6191	78.450745637234	1
2	6258	80.289396632313	1
2	6268	80.290396632313	1
2	6288	80.291396632313	1
2	6307	80.292396632313	1
2	6329	80.362678485079	1
2	6361	80.741769662895	1
2	6371	80.742769662895	1
2	6391	80.743769662895	1
2	6410	80.744769662895	1
2	6433	80.843130019551	1
2	6443	80.844130019551	1
2	6463	80.845130019551	1
2	6482	80.846130019551	1
2	6505	81.05815617249	1
2	6515	81.05915617249	1
2	6535	81.06015617249	1
2	6554	81.06115617249	1
2	6579	81.362678485079	1
2	6619	82.362678485079	1
2	6666	83.362678485079	1
2	6734	84.362678485079	1
2	6768	85.362678485079	1
2	6792	86.362678485079	1
2	6863	87.897273468966	1
2	6870	88.343551885168	1
2	6885	88.496022052909	1
2	6907	88.739210900086	1
2	6933	89.496022052909	1
2	6952	89.984405588043	1
2	6977	90.496022052909	1
2	7009	91.496022052909	1
2	7053	92.496022052909	1
2	7095	93.207696688904	1
2	7105	93.208696688904	1
2	7125	93.209696688904	1
2	7144	93.210696688904	1
2	7170	93.496022052909	1
2	7206	94.022700899931	1
2	7216	94.023700899931	1
2	7236	94.024700899931	1