version 3
run General-0-20250524-22:35:40-109174
attr configname General
attr datetime 20250524-22:35:40
attr datetimef 20250524-223540
attr experiment General
attr inifile omnetpp.ini
attr iterationvars ""
attr iterationvarsd ""
attr iterationvarsf ""
attr measurement ""
attr network Network
attr processid 109174
attr repetition 0
attr replication #0
attr resultdir results
attr runnumber 0
attr seedset 0
config network Network
config sim-time-limit 200s
config "Network.node[{0, 1, 2, 3, 4, 6, 7}].app.interArrivalTime" exponential(1.25)
config "Network.node[{0, 1, 2, 3, 4, 6, 7}].app.packetByteSize" 125000
config "Network.node[{0, 1, 2, 3, 4, 6, 7}].app.destination" 5
config Network.node[{5}].net.interFeedBackTime exponential(3)

vector 0 Network.node[7].lnk[0] "Lnk use" ETV
vector 1 Network.node[7].lnk[0] "Buffer Size" ETV
vector 2 Network.node[6].lnk[0] "Lnk use" ETV
vector 3 Network.node[6].lnk[0] "Buffer Size" ETV
vector 4 Network.node[6].lnk[1] "Lnk use" ETV
vector 5 Network.node[0].lnk[0] "Lnk use" ETV
vector 6 Network.node[0].lnk[0] "Buffer Size" ETV
vector 7 Network.node[4].lnk[0] "Lnk use" ETV
vector 8 Network.node[4].lnk[0] "Buffer Size" ETV
vector 9 Network.node[5].lnk[1] "Lnk use" ETV
vector 10 Network.node[5].app "Delay Source 6" ETV
vector 11 Network.node[5].app "HopCount Source 6" ETV
vector 12 Network.node[5].lnk[0] "Lnk use" ETV
vector 13 Network.node[5].lnk[0] "Buffer Size" ETV
vector 14 Network.node[4].lnk[1] "Lnk use" ETV
vector 15 Network.node[7].lnk[1] "Lnk use" ETV
vector 16 Network.node[3].lnk[1] "Lnk use" ETV
vector 17 Network.node[3].lnk[0] "Lnk use" ETV
vector 18 Network.node[3].lnk[0] "Buffer Size" ETV
vector 19 Network.node[1].lnk[0] "Lnk use" ETV
vector 20 Network.node[1].lnk[0] "Buffer Size" ETV
vector 21 Network.node[2].lnk[0] "Lnk use" ETV
vector 22 Network.node[2].lnk[0] "Buffer Size" ETV
vector 23 Network.node[2].lnk[1] "Lnk use" ETV
vector 24 Network.node[0].lnk[1] "Lnk use" ETV
vector 25 Network.node[1].lnk[1] "Lnk use" ETV
vector 26 Network.node[5].app "Delay Source 7" ETV
vector 27 Network.node[5].app "HopCount Source 7" ETV
vector 28 Network.node[5].app "Delay Source 0" ETV
vector 29 Network.node[5].app "HopCount Source 0" ETV
vector 30 Network.node[5].app "Delay Source 1" ETV
vector 31 Network.node[5].app "HopCount Source 1" ETV
vector 32 Network.node[5].app "Delay Source 2" ETV
vector 33 Network.node[5].app "HopCount Source 2" ETV
vector 34 Network.node[6].lnk[1] "Buffer Size" ETV
vector 35 Network.node[7].lnk[1] "Buffer Size" ETV
vector 36 Network.node[0].lnk[1] "Buffer Size" ETV
vector 37 Network.node[1].lnk[1] "Buffer Size" ETV
vector 38 Network.node[2].lnk[1] "Buffer Size" ETV
vector 39 Network.node[3].lnk[1] "Buffer Size" ETV
vector 40 Network.node[4].lnk[1] "Buffer Size" ETV
vector 41 Network.node[5].app "Delay Source 4" ETV
vector 42 Network.node[5].app "HopCount Source 4" ETV
vector 43 Network.node[5].app "Delay Source 3" ETV
vector 44 Network.node[5].app "HopCount Source 3" ETV
vector 45 Network.node[5].lnk[1] "Buffer Size" ETV
0	3	0.072980836366	1
0	44	2.123300485605	1
0	83	3.123300485605	1
0	147	4.123300485605	1
0	161	4.216621186276	1
0	192	5.123300485605	1
0	237	6.123300485605	1
0	269	6.767736456166	1
0	274	7.123300485605	1
0	316	8.123300485605	1
0	322	8.187660133304	1
0	393	9.123300485605	1
0	457	10.123300485605	1
0	503	11.123300485605	1
0	553	11.805685730788	1
0	567	12.123300485605	1
0	646	12.992553960159	1
0	651	13.123300485605	1
0	694	14.123300485605	1
0	711	14.380800767268	1
0	751	15.123300485605	1
0	815	15.550877716982	1
0	854	16.123300485605	1
0	919	17.123300485605	1
0	926	17.124300485605	1
0	972	18.124300485605	1
0	1027	19.124300485605	1
0	1107	19.542061019549	1
0	1160	20.117078466724	1
0	1168	20.124300485605	1
0	1230	21.124300485605	1
0	1237	21.335955884419	1
0	1267	22.124300485605	1
0	1342	23.124300485605	1
0	1390	23.967607510409	1
0	1401	24.124300485605	1
0	1412	24.383120311614	1
0	1478	24.543191268253	1
0	1484	24.98216137998	1
0	1496	25.124300485605	1
0	1501	25.140147175512	1
0	1557	25.618523361589	1
0	1560	25.701395113442	1
0	1567	26.006889423544	1
0	1572	26.124300485605	1
0	1623	26.738394914732	1
0	1629	27.047943818627	1
0	1634	27.124300485605	1
0	1659	27.433462368749	1
0	1670	27.556775254272	1
0	1686	28.124300485605	1
0	1697	28.212381823563	1
0	1745	29.124300485605	1
0	1753	29.212381823563	1
0	1790	30.124300485605	1
0	1840	30.73215588922	1
0	1857	30.985093937429	1
0	1860	31.010484510924	1
0	1865	31.124300485605	1
0	1885	31.235799825905	1
0	1968	32.124300485605	1
0	2006	32.449900422467	1
0	2061	33.124300485605	1
0	2099	33.442976166421	1
0	2113	33.865693099933	1
0	2124	34.124300485605	1
0	2170	34.504502180877	1
0	2214	35.124300485605	1
0	2251	35.629473611551	1
0	2262	35.929012135293	1
0	2267	36.124300485605	1
0	2357	36.629473611551	1
0	2381	37.124300485605	1
0	2473	37.431810344351	1
0	2544	38.124300485605	1
0	2605	39.124300485605	1
0	2695	40.093684589436	1
0	2700	40.124300485605	1
0	2807	41.046019303556	1
0	2812	41.124300485605	1
0	2817	41.178706083518	1
0	2885	42.124300485605	1
0	2898	42.211522904064	1
0	2952	42.639772434937	1
0	2960	43.124300485605	1
0	2970	43.339723772529	1
0	3030	43.521691245589	1
0	3080	43.964471410896	1
0	3089	44.124300485605	1
0	3152	45.03207108045	1
0	3154	45.085541530591	1
0	3162	45.124300485605	1
0	3175	45.344672949172	1
0	3215	45.53503998074	1
0	3231	45.662940749306	1
0	3237	46.039898140835	1
0	3239	46.085541530591	1
0	3251	46.124300485605	1
0	3332	47.002494215268	1
0	3334	47.085541530591	1
0	3346	47.124300485605	1
0	3352	47.134510019804	1
0	3359	47.265612314304	1
0	3443	48.085541530591	1
0	3455	48.124300485605	1
0	3576	49.085541530591	1
0	3588	49.124300485605	1
0	3710	50.124300485605	1
0	3724	50.414714976908	1
0	3758	50.642888229261	1
0	3772	51.124300485605	1
0	3828	52.124300485605	1
0	3866	52.530167548773	1
0	3872	52.572401030713	1
0	3958	53.124300485605	1
0	4020	54.124300485605	1
0	4027	54.125300485605	1
0	4146	55.126300485605	1
0	4253	56.126300485605	1
0	4334	57.126300485605	1
0	4439	58.126300485605	1
0	4499	59.126300485605	1
0	4606	60.126300485605	1
0	4729	61.126300485605	1
0	4733	61.127300485605	1
0	4796	62.128300485605	1
0	4852	63.128300485605	1
0	4971	64.128300485605	1
0	5036	65.128300485605	1
0	5221	66.128300485605	1
0	5281	67.128300485605	1
0	5612	68.128300485605	1
0	5713	69.128300485605	1
0	5770	70.128300485605	1
0	5862	71.128300485605	1
0	5988	72.128300485605	1
0	6057	73.128300485605	1
0	6191	74.128300485605	1
0	6251	75.128300485605	1
0	6308	76.128300485605	1
0	6742	77.128300485605	1
0	6972	78.128300485605	1
0	7034	79.128300485605	1
0	7182	80.128300485605	1
0	7339	81.128300485605	1
0	7399	82.128300485605	1
0	7479	83.128300485605	1
0	7621	84.128300485605	1
0	7776	85.128300485605	1
0	7838	86.128300485605	1
0	7903	87.128300485605	1
0	7955	88.128300485605	1
0	8187	89.128300485605	1
0	8249	90.128300485605	1
0	8324	91.128300485605	1
0	8404	92.128300485605	1
0	8453	93.128300485605	1
0	8502	94.128300485605	1
0	8567	95.128300485605	1
0	8571	95.129300485605	1
0	8578	95.131300485605	1
0	8638	96.132300485605	1
0	8691	97.132300485605	1
0	8750	98.132300485605	1
0	8808	99.132300485605	1
0	8890	100.132300485605	1
0	9033	101.132300485605	1
0	9119	102.132300485605	1
0	9181	103.132300485605	1
0	9252	104.132300485605	1
0	9315	105.132300485605	1
0	9379	105.89378156533	1
0	9389	106.132300485605	1
0	9439	106.89378156533	1
0	9452	107.132300485605	1
0	9518	108.132300485605	1
0	9919	108.772929870542	1
0	9936	109.132300485605	1
0	9984	109.772929870542	1
0	10010	110.132300485605	1
0	10055	110.772929870542	1
0	10177	111.132300485605	1
0	10303	111.772929870542	1
0	10317	112.132300485605	1
0	10374	112.772929870542	1
0	10394	113.132300485605	1
0	10445	113.772929870542	1
0	10462	114.132300485605	1
0	10517	115.132300485605	1
0	10521	115.133300485605	1
0	10528	115.135300485605	1
0	10592	116.136300485605	1
0	10743	117.136300485605	1
0	10810	118.136300485605	1
0	10880	119.136300485605	1
0	10935	120.136300485605	1
0	11071	121.136300485605	1
0	11137	122.136300485605	1
0	11291	123.136300485605	1
0	11352	124.136300485605	1
0	11429	125.136300485605	1
0	11433	125.137300485605	1
0	11497	126.138300485605	1
0	11511	126.139300485605	1
0	11536	126.141300485605	1
0	11577	126.143300485605	1
0	11657	127.144300485605	1
0	11709	128.144300485605	1
0	11764	129.144300485605	1
0	11825	130.144300485605	1
0	11829	130.145300485605	1
0	11887	131.146300485605	1
0	12029	132.146300485605	1
0	12104	133.146300485605	1
0	12435	134.146300485605	1
0	12583	135.146300485605	1
0	12641	136.146300485605	1
0	12804	137.146300485605	1
0	12973	138.146300485605	1
0	13028	139.146300485605	1
0	13167	140.146300485605	1
0	13222	141.146300485605	1
0	13610	142.146300485605	1
0	13763	143.146300485605	1
0	13828	143.749468144972	1
0	13920	144.146300485605	1
0	13974	145.146300485605	1
0	14036	145.815009809104	1
0	14128	146.146300485605	1
0	14132	146.147300485605	1
0	14195	147.148300485605	1
0	14243	148.148300485605	1
0	14288	149.148300485605	1
0	14292	149.149300485605	1
0	14299	149.151300485605	1
0	14353	150.152300485605	1
0	14404	151.152300485605	1
0	14449	152.152300485605	1
0	14503	153.152300485605	1
0	14545	154.152300485605	1
0	14612	155.152300485605	1
0	14666	156.152300485605	1
0	14698	156.22694505071	1
0	14836	157.152300485605	1
0	14840	157.153300485605	1
0	14891	158.154300485605	1
0	14948	159.154300485605	1
0	14993	160.154300485605	1
0	15038	161.154300485605	1
0	15112	161.70952385416	1
0	15198	162.154300485605	1
0	15289	163.135542863085	1
0	15367	163.154300485605	1
0	15433	164.099563771692	1
0	15518	164.154300485605	1
0	15570	165.154300485605	1
0	15625	166.154300485605	1
0	15629	166.155300485605	1
0	15636	166.157300485605	1
0	15643	166.159300485605	1
0	15650	166.161300485605	1
0	15657	166.163300485605	1
0	15697	166.176300485605	1
0	15704	166.178300485605	1
0	15711	166.180300485605	1
0	15718	166.182300485605	1
0	15725	166.184300485605	1
0	15732	166.186300485605	1
0	15739	166.188300485605	1
0	15746	166.190300485605	1
0	15849	166.507394034315	1
0	15897	167.507394034315	1
0	15954	168.507394034315	1
0	16034	170.400405107516	1
0	16297	171.400405107516	1
0	16869	176.218040589165	1
0	17035	177.218040589165	1
0	17113	178.218040589165	1
0	17262	181.347885159598	1
0	17334	182.494474905738	1
0	18819	198.142122805866	1
0	18898	199.071218920992	1
1	3	0.072980836366	1
1	4	0.072980836366	0
1	44	2.123300485605	1
1	45	2.123300485605	0
1	83	3.123300485605	1
1	84	3.123300485605	0
1	147	4.123300485605	1
1	148	4.123300485605	0
1	161	4.216621186276	1
1	190	5.123300485605	0
1	192	5.123300485605	1
1	235	6.123300485605	0
1	237	6.123300485605	1
1	269	6.767736456166	2
1	272	7.123300485605	1
1	274	7.123300485605	2
1	314	8.123300485605	1
1	316	8.123300485605	2
1	322	8.187660133304	3
1	391	9.123300485605	2
1	393	9.123300485605	3
1	455	10.123300485605	2
1	457	10.123300485605	3
1	501	11.123300485605	2
1	503	11.123300485605	3
1	553	11.805685730788	4
1	565	12.123300485605	3
1	567	12.123300485605	4
1	646	12.992553960159	5
1	649	13.123300485605	4
1	651	13.123300485605	5
1	692	14.123300485605	4
1	694	14.123300485605	5
1	711	14.380800767268	6
1	749	15.123300485605	5
1	751	15.123300485605	6
1	815	15.550877716982	7
1	852	16.123300485605	6
1	854	16.123300485605	7
1	917	17.123300485605	6
1	919	17.123300485605	7
1	926	17.124300485605	8
1	965	18.123300485605	7
1	972	18.124300485605	8
1	1020	19.123300485605	7
1	1027	19.124300485605	8
1	1107	19.542061019549	9
1	1160	20.117078466724	10
1	1161	20.123300485605	9
1	1168	20.124300485605	10
1	1223	21.123300485605	9
1	1230	21.124300485605	10
1	1237	21.335955884419	11
1	1260	22.123300485605	10
1	1267	22.124300485605	11
1	1335	23.123300485605	10
1	1342	23.124300485605	11
1	1390	23.967607510409	12
1	1394	24.123300485605	11
1	1401	24.124300485605	12
1	1412	24.383120311614	13
1	1478	24.543191268253	14
1	1484	24.98216137998	15
1	1488	25.123300485605	14
1	1494	25.124300485605	13
1	1496	25.124300485605	14
1	1501	25.140147175512	15
1	1557	25.618523361589	16
1	1560	25.701395113442	17
1	1567	26.006889423544	18
1	1570	26.124300485605	17
1	1572	26.124300485605	18
1	1629	27.047943818627	19
1	1632	27.124300485605	18
1	1634	27.124300485605	19
1	1659	27.433462368749	20
1	1670	27.556775254272	21
1	1684	28.124300485605	20
1	1686	28.124300485605	21
1	1743	29.124300485605	20
1	1745	29.124300485605	21
1	1788	30.124300485605	20
1	1790	30.124300485605	21
1	1840	30.73215588922	22
1	1857	30.985093937429	23
1	1860	31.010484510924	24
1	1863	31.124300485605	23
1	1865	31.124300485605	24
1	1885	31.235799825905	25
1	1966	32.124300485605	24
1	1968	32.124300485605	25
1	2059	33.124300485605	24
1	2061	33.124300485605	25
1	2099	33.442976166421	26
1	2122	34.124300485605	25
1	2124	34.124300485605	26
1	2170	34.504502180877	27
1	2212	35.124300485605	26
1	2214	35.124300485605	27
1	2262	35.929012135293	28
1	2265	36.124300485605	27
1	2267	36.124300485605	28
1	2379	37.124300485605	27
1	2381	37.124300485605	28
1	2473	37.431810344351	29
1	2542	38.124300485605	28
1	2544	38.124300485605	29
1	2603	39.124300485605	28
1	2605	39.124300485605	29
1	2695	40.093684589436	30
1	2698	40.124300485605	29
1	2700	40.124300485605	30
1	2807	41.046019303556	31
1	2810	41.124300485605	30
1	2812	41.124300485605	31
1	2883	42.124300485605	30
1	2885	42.124300485605	31
1	2898	42.211522904064	32
1	2952	42.639772434937	33
1	2958	43.124300485605	32
1	2960	43.124300485605	33
1	2970	43.339723772529	34
1	3030	43.521691245589	35
1	3080	43.964471410896	36
1	3087	44.124300485605	35
1	3089	44.124300485605	36
1	3152	45.03207108045	37
1	3160	45.124300485605	36
1	3162	45.124300485605	37
1	3175	45.344672949172	38
1	3215	45.53503998074	39
1	3231	45.662940749306	40
1	3237	46.039898140835	41
1	3249	46.124300485605	40
1	3251	46.124300485605	41
1	3332	47.002494215268	42
1	3344	47.124300485605	41
1	3346	47.124300485605	42
1	3352	47.134510019804	43
1	3359	47.265612314304	44
1	3453	48.124300485605	43
1	3455	48.124300485605	44
1	3586	49.124300485605	43
1	3588	49.124300485605	44
1	3708	50.124300485605	43
1	3710	50.124300485605	44
1	3724	50.414714976908	45
1	3758	50.642888229261	46
1	3770	51.124300485605	45
1	3772	51.124300485605	46
1	3826	52.124300485605	45
1	3828	52.124300485605	46
1	3866	52.530167548773	47
1	3872	52.572401030713	48
1	3956	53.124300485605	47
1	3958	53.124300485605	48
1	4018	54.124300485605	47
1	4020	54.124300485605	48
1	4027	54.125300485605	49
1	4139	55.124300485605	48
1	4146	55.126300485605	49
1	4246	56.124300485605	48
1	4253	56.126300485605	49
1	4327	57.124300485605	48
1	4334	57.126300485605	49
1	4432	58.124300485605	48
1	4439	58.126300485605	49
1	4492	59.124300485605	48
1	4499	59.126300485605	49
1	4599	60.124300485605	48
1	4606	60.126300485605	49
1	4722	61.124300485605	48
1	4729	61.126300485605	49
1	4733	61.127300485605	50
1	4789	62.124300485605	49
1	4796	62.128300485605	50
1	4845	63.124300485605	49
1	4852	63.128300485605	50
1	4964	64.124300485605	49
1	4971	64.128300485605	50
1	5029	65.124300485605	49
1	5036	65.128300485605	50
1	5214	66.124300485605	49
1	5221	66.128300485605	50
1	5274	67.124300485605	49
1	5281	67.128300485605	50
1	5605	68.124300485605	49
1	5612	68.128300485605	50
1	5706	69.124300485605	49
1	5713	69.128300485605	50
1	5763	70.124300485605	49
1	5770	70.128300485605	50
1	5855	71.124300485605	49
1	5862	71.128300485605	50
1	5977	72.124300485605	49
1	5988	72.128300485605	50
1	6050	73.124300485605	49
1	6057	73.128300485605	50
1	6184	74.124300485605	49
1	6191	74.128300485605	50
1	6244	75.124300485605	49
1	6251	75.128300485605	50
1	6301	76.124300485605	49
1	6308	76.128300485605	50
1	6735	77.124300485605	49
1	6742	77.128300485605	50
1	6965	78.124300485605	49
1	6972	78.128300485605	50
1	7027	79.124300485605	49
1	7034	79.128300485605	50
1	7175	80.124300485605	49
1	7182	80.128300485605	50
1	7332	81.124300485605	49
1	7339	81.128300485605	50
1	7392	82.124300485605	49
1	7399	82.128300485605	50
1	7472	83.124300485605	49
1	7479	83.128300485605	50
1	7614	84.124300485605	49
1	7621	84.128300485605	50
1	7769	85.124300485605	49
1	7776	85.128300485605	50
1	7831	86.124300485605	49
1	7838	86.128300485605	50
1	7896	87.124300485605	49
1	7903	87.128300485605	50
1	7948	88.124300485605	49
1	7955	88.128300485605	50
1	8180	89.124300485605	49
1	8187	89.128300485605	50
1	8242	90.124300485605	49
1	8249	90.128300485605	50
1	8317	91.124300485605	49
1	8324	91.128300485605	50
1	8397	92.124300485605	49
1	8404	92.128300485605	50
1	8446	93.124300485605	49
1	8453	93.128300485605	50
1	8495	94.124300485605	49
1	8502	94.128300485605	50
1	8560	95.124300485605	49
1	8567	95.128300485605	50
1	8571	95.129300485605	51
1	8578	95.131300485605	52
1	8631	96.124300485605	51
1	8638	96.132300485605	52
1	8684	97.124300485605	51
1	8691	97.132300485605	52
1	8743	98.124300485605	51
1	8750	98.132300485605	52
1	8801	99.124300485605	51
1	8808	99.132300485605	52
1	8883	100.124300485605	51
1	8890	100.132300485605	52
1	9026	101.124300485605	51
1	9033	101.132300485605	52
1	9112	102.124300485605	51
1	9119	102.132300485605	52
1	9171	103.124300485605	51
1	9175	103.125300485605	50
1	9181	103.132300485605	51
1	9242	104.125300485605	50
1	9252	104.132300485605	51
1	9308	105.125300485605	50
1	9315	105.132300485605	51
1	9382	106.125300485605	50
1	9389	106.132300485605	51
1	9445	107.125300485605	50
1	9452	107.132300485605	51
1	9511	108.125300485605	50
1	9518	108.132300485605	51
1	9929	109.125300485605	50
1	9936	109.132300485605	51
1	10000	110.125300485605	50
1	10004	110.126300485605	49
1	10010	110.132300485605	50
1	10170	111.126300485605	49
1	10177	111.132300485605	50
1	10310	112.126300485605	49
1	10317	112.132300485605	50
1	10387	113.126300485605	49
1	10394	113.132300485605	50
1	10455	114.126300485605	49
1	10462	114.132300485605	50
1	10510	115.126300485605	49
1	10517	115.132300485605	50
1	10521	115.133300485605	51
1	10528	115.135300485605	52
1	10582	116.126300485605	51
1	10592	116.136300485605	52
1	10736	117.126300485605	51
1	10743	117.136300485605	52
1	10803	118.126300485605	51
1	10810	118.136300485605	52
1	10873	119.126300485605	51
1	10880	119.136300485605	52
1	10928	120.126300485605	51
1	10935	120.136300485605	52
1	11064	121.126300485605	51
1	11071	121.136300485605	52
1	11130	122.126300485605	51
1	11137	122.136300485605	52
1	11284	123.126300485605	51
1	11291	123.136300485605	52
1	11345	124.126300485605	51
1	11352	124.136300485605	52
1	11422	125.126300485605	51
1	11429	125.136300485605	52
1	11433	125.137300485605	53
1	11487	126.126300485605	52
1	11497	126.138300485605	53
1	11511	126.139300485605	54
1	11536	126.141300485605	55
1	11577	126.143300485605	56
1	11650	127.126300485605	55
1	11657	127.144300485605	56
1	11702	128.126300485605	55
1	11709	128.144300485605	56
1	11757	129.126300485605	55
1	11764	129.144300485605	56
1	11818	130.126300485605	55
1	11825	130.144300485605	56
1	11829	130.145300485605	57
1	11880	131.126300485605	56
1	11887	131.146300485605	57
1	12022	132.126300485605	56
1	12029	132.146300485605	57
1	12097	133.126300485605	56
1	12104	133.146300485605	57
1	12428	134.126300485605	56
1	12435	134.146300485605	57
1	12576	135.126300485605	56
1	12583	135.146300485605	57
1	12634	136.126300485605	56
1	12641	136.146300485605	57
1	12797	137.126300485605	56
1	12804	137.146300485605	57
1	12963	138.126300485605	56
1	12973	138.146300485605	57
1	13021	139.126300485605	56
1	13028	139.146300485605	57
1	13160	140.126300485605	56
1	13167	140.146300485605	57
1	13215	141.126300485605	56
1	13222	141.146300485605	57
1	13603	142.126300485605	56
1	13610	142.146300485605	57
1	13756	143.126300485605	56
1	13763	143.146300485605	57
1	13907	144.126300485605	56
1	13911	144.127300485605	55
1	13914	144.128300485605	54
1	13920	144.146300485605	55
1	13967	145.128300485605	54
1	13974	145.146300485605	55
1	14121	146.128300485605	54
1	14128	146.146300485605	55
1	14132	146.147300485605	56
1	14188	147.128300485605	55
1	14195	147.148300485605	56
1	14236	148.128300485605	55
1	14243	148.148300485605	56
1	14281	149.128300485605	55
1	14288	149.148300485605	56
1	14292	149.149300485605	57
1	14299	149.151300485605	58
1	14343	150.128300485605	57
1	14353	150.152300485605	58
1	14397	151.128300485605	57
1	14404	151.152300485605	58
1	14442	152.128300485605	57
1	14449	152.152300485605	58
1	14496	153.128300485605	57
1	14503	153.152300485605	58
1	14538	154.128300485605	57
1	14545	154.152300485605	58
1	14605	155.128300485605	57
1	14612	155.152300485605	58
1	14656	156.128300485605	57
1	14666	156.152300485605	58
1	14829	157.128300485605	57
1	14836	157.152300485605	58
1	14840	157.153300485605	59
1	14884	158.128300485605	58
1	14891	158.154300485605	59
1	14941	159.128300485605	58
1	14948	159.154300485605	59
1	14986	160.128300485605	58
1	14993	160.154300485605	59
1	15031	161.128300485605	58
1	15038	161.154300485605	59
1	15191	162.128300485605	58
1	15198	162.154300485605	59
1	15254	163.128300485605	58
1	15367	163.154300485605	59
1	15505	164.128300485605	58
1	15509	164.129300485605	57
1	15512	164.130300485605	56
1	15518	164.154300485605	57
1	15563	165.130300485605	56
1	15570	165.154300485605	57
1	15618	166.130300485605	56
1	15625	166.154300485605	57
1	15629	166.155300485605	58
1	15636	166.157300485605	59
1	15643	166.159300485605	60
1	15650	166.161300485605	61
1	15657	166.163300485605	62
1	15697	166.176300485605	63
1	15704	166.178300485605	64
1	15711	166.180300485605	65
1	15718	166.182300485605	66
1	15725	166.184300485605	67
1	15732	166.186300485605	68
1	15739	166.188300485605	69
1	15746	166.190300485605	70
1	15869	167.130300485605	69
1	15920	168.130300485605	68
1	15968	169.130300485605	67
1	16026	170.130300485605	66
1	16183	171.130300485605	65
1	16331	172.130300485605	64
1	16492	173.130300485605	63
1	16542	174.130300485605	62
1	16546	174.131300485605	61
1	16689	175.131300485605	60
1	16693	175.132300485605	59
1	16696	175.133300485605	58
1	16699	175.134300485605	57
1	16864	176.134300485605	56
1	17027	177.134300485605	55
1	17099	178.134300485605	54
1	17156	179.134300485605	53
1	17160	179.135300485605	52
1	17209	180.135300485605	51
1	17257	181.135300485605	50
1	17306	182.135300485605	49
1	17345	183.135300485605	48
1	17392	184.135300485605	47
1	17548	185.135300485605	46
1	17704	186.135300485605	45
1	17754	187.135300485605	44
1	17798	188.135300485605	43
1	17842	189.135300485605	42
1	17886	190.135300485605	41
1	18042	191.135300485605	40
1	18086	192.135300485605	39
1	18239	193.135300485605	38
1	18398	194.135300485605	37
1	18539	195.135300485605	36
1	18543	195.136300485605	35
1	18595	196.136300485605	34
1	18642	197.136300485605	33
1	18808	198.136300485605	32
1	18812	198.137300485605	31
1	18815	198.138300485605	30
1	18963	199.138300485605	29
2	7	0.441448923922	1
2	11	0.839394099974	1
2	15	1.073080836366	1
2	30	1.44389673116	1
2	87	3.123400485605	1
2	124	3.534160731566	1
2	151	4.123400485605	1
2	195	5.123400485605	1
2	229	5.768520310864	1
2	240	6.123400485605	1
2	277	7.123400485605	1
2	308	7.78602290448	1
2	311	7.979435005105	1
2	319	8.123400485605	1
2	385	8.942978328189	1
2	396	9.123400485605	1
2	411	9.32707876838	1
2	460	10.123400485605	1
2	506	11.123400485605	1
2	512	11.18739730057	1
2	570	12.123400485605	1
2	618	12.618820993945	1
2	654	13.123400485605	1
2	697	14.123400485605	1
2	754	15.123400485605	1
2	857	16.123400485605	1
2	908	16.994088099513	1
2	922	17.123400485605	1
2	933	17.359188766097	1
2	968	18.123400485605	1
2	975	18.1639150181	1
2	1023	19.123400485605	1
2	1110	19.567875395017	1
2	1164	20.123400485605	1
2	1216	20.925712121115	1
2	1222	21.052005590251	1
2	1226	21.123400485605	1
2	1263	22.123400485605	1
2	1338	23.123400485605	1
2	1397	24.123400485605	1
2	1491	25.123400485605	1
2	1575	26.124400485605	1
2	1637	27.124400485605	1
2	1689	28.124400485605	1
2	1748	29.124400485605	1
2	1793	30.124400485605	1
2	1868	31.124400485605	1
2	1971	32.124400485605	1
2	2064	33.124400485605	1
2	2127	34.124400485605	1
2	2217	35.124400485605	1
2	2270	36.124400485605	1
2	2384	37.124400485605	1
2	2547	38.124400485605	1
2	2608	39.124400485605	1
2	2703	40.124400485605	1
2	2815	41.124400485605	1
2	2888	42.124400485605	1
2	2963	43.124400485605	1
2	3092	44.124400485605	1
2	3165	45.124400485605	1
2	3254	46.124400485605	1
2	3349	47.124400485605	1
2	3458	48.124400485605	1
2	3591	49.124400485605	1
2	3713	50.124400485605	1
2	3775	51.124400485605	1
2	3831	52.124400485605	1
2	3961	53.124400485605	1
2	4023	54.124400485605	1
2	4089	54.635701195212	1
2	4142	55.124400485605	1
2	4199	55.974459656769	1
2	4249	56.124400485605	1
2	4316	56.532533762543	1
2	4330	57.124400485605	1
2	4341	57.373109408585	1
2	4422	57.652033418711	1
2	4431	57.96891555014	1
2	4435	58.124400485605	1
2	4495	59.124400485605	1
2	4602	60.124400485605	1
2	4620	60.133333712833	1
2	4725	61.124400485605	1
2	4780	61.574595910648	1
2	4792	62.124400485605	1
2	4844	62.688819131786	1
2	4848	63.124400485605	1
2	4855	63.156177251665	1
2	4905	63.736246432459	1
2	4967	64.124400485605	1
2	4977	64.166152318414	1
2	5032	65.124400485605	1
2	5050	65.259841800519	1
2	5167	66.033880092339	1
2	5217	66.124400485605	1
2	5277	67.124400485605	1
2	5295	67.154889475522	1
2	5432	67.748792681524	1
2	5481	67.777496808288	1
2	5495	67.823757741462	1
2	5555	68.032610754683	1
2	5608	68.124400485605	1
2	5709	69.124400485605	1
2	5766	70.124400485605	1
2	5777	70.187946979388	1
2	5848	70.980359503631	1
2	5858	71.124400485605	1
2	5934	72.1184059276	1
2	5980	72.124400485605	1
2	6053	73.124400485605	1
2	6180	73.941507217177	1
2	6187	74.124400485605	1
2	6205	74.408711334448	1
2	6247	75.124400485605	1
2	6304	76.124400485605	1
2	6604	76.408360636748	1
2	6738	77.124400485605	1
2	6968	78.124400485605	1
2	6981	78.351689309009	1
2	7016	78.64234558199	1
2	7022	78.850938883531	1
2	7030	79.124400485605	1
2	7178	80.124400485605	1
2	7222	80.489654343731	1
2	7318	80.645945081135	1
2	7335	81.124400485605	1
2	7379	81.556599884553	1
2	7395	82.124400485605	1
2	7408	82.334146033405	1
2	7442	82.620701439914	1
2	7455	82.846044314387	1
2	7475	83.124400485605	1
2	7490	83.395363552503	1
2	7617	84.124400485605	1
2	7768	85.121567422087	1
2	7772	85.124400485605	1
2	7783	85.414887233658	1
2	7817	85.846786713294	1
2	7834	86.124400485605	1
2	7847	86.191196634592	1
2	7899	87.124400485605	1
2	7951	88.124400485605	1
2	8019	88.632019264255	1
2	8107	88.830295296335	1
2	8183	89.124400485605	1
2	8218	89.506894778993	1
2	8245	90.124400485605	1
2	8312	90.672659598079	1
2	8320	91.124400485605	1
2	8385	91.519912100648	1
2	8400	92.124400485605	1
2	8445	93.091458345111	1
2	8449	93.124400485605	1
2	8498	94.124400485605	1
2	8553	94.632558923899	1
2	8556	94.649215479935	1
2	8563	95.124400485605	1
2	8634	96.124400485605	1
2	8687	97.124400485605	1
2	8746	98.124400485605	1
2	8804	99.124400485605	1
2	8814	99.223787143391	1
2	8882	100.118843790883	1
2	8886	100.124400485605	1
2	8904	100.212366645598	1
2	9029	101.124400485605	1
2	9036	101.17151416943	1
2	9107	101.83396614352	1
2	9115	102.124400485605	1
2	9125	102.390402817778	1
2	9170	103.02789136009	1
2	9174	103.124400485605	1
2	9245	104.125400485605	1
2	9311	105.125400485605	1
2	9385	106.125400485605	1
2	9448	107.125400485605	1
2	9514	108.125400485605	1
2	9932	109.125400485605	1
2	10003	110.125400485605	1
2	10087	111.039189660549	1
2	10173	111.126400485605	1
2	10222	111.733452576415	1
2	10313	112.126400485605	1
2	10333	112.416962339254	1
2	10386	113.002095405798	1
2	10390	113.126400485605	1
2	10400	113.181161682525	1
2	10458	114.126400485605	1
2	10506	115.069238684055	1
2	10513	115.126400485605	1
2	10585	116.126400485605	1
2	10609	116.240690957547	1
2	10739	117.126400485605	1
2	10789	117.748113309592	1
2	10799	117.920554849504	1
2	10806	118.126400485605	1
2	10843	118.543920265592	1
2	10865	118.802901743406	1
2	10876	119.126400485605	1
2	10907	119.566005299653	1
2	10931	120.126400485605	1
2	10980	120.833236214377	1
2	11067	121.126400485605	1
2	11133	122.126400485605	1
2	11143	122.237782412675	1
2	11160	122.360843674976	1
2	11287	123.126400485605	1
2	11297	123.322744890197	1
2	11348	124.126400485605	1
2	11425	125.126400485605	1
2	11439	125.143445154667	1
2	11490	126.126400485605	1
2	11515	126.139767186847	1
2	11653	127.126400485605	1
2	11690	127.580916294475	1
2	11705	128.126400485605	1
2	11760	129.126400485605	1
2	11807	129.693709987923	1
2	11821	130.126400485605	1
2	11845	130.435061984579	1
2	11852	130.477401803632	1
2	11879	130.935783245875	1
2	11883	131.126400485605	1
2	11942	132.103585551379	1
2	12025	132.126400485605	1
2	12100	133.126400485605	1
2	12125	133.427049983568	1
2	12248	133.741848225553	1
2	12348	134.052860735479	1
2	12431	134.126400485605	1
2	12449	134.342484572562	1
2	12575	134.927985586728	1
2	12579	135.126400485605	1
2	12592	135.26639107515	1
2	12598	135.3084334763	1
2	12601	135.328094881019	1
2	12637	136.126400485605	1
2	12655	136.158785917483	1
2	12740	136.22765100313	1
2	12743	136.315778438581	1
2	12800	137.126400485605	1
2	12813	137.298977303446	1
2	12870	137.838811037475	1
2	12966	138.126400485605	1
2	12969	138.143172141162	1
2	13003	138.607124292163	1
2	13024	139.126400485605	1
2	13042	139.245575019293	1
2	13163	140.126400485605	1
2	13207	140.833292635777	1
2	13218	141.126400485605	1
2	13606	142.126400485605	1
2	13627	142.310730061522	1
2	13755	142.856618968802	1
2	13759	143.126400485605	1
2	13810	143.748368144972	1
2	13820	143.749368144972	1
2	13910	144.126400485605	1
2	13970	145.128400485605	1
2	14018	145.813909809104	1
2	14028	145.814909809104	1
2	14120	146.12617013433	1
2	14124	146.128400485605	1
2	14191	147.128400485605	1
2	14239	148.128400485605	1
2	14284	149.128400485605	1
2	14305	149.363452816202	1
2	14335	149.803162047989	1
2	14346	150.128400485605	1
2	14400	151.128400485605	1
2	14445	152.128400485605	1
2	14499	153.128400485605	1
2	14541	154.128400485605	1
2	14608	155.128400485605	1
2	14651	155.840312357951	1
2	14659	156.128400485605	1
2	14680	156.22584505071	1
2	14690	156.22684505071	1
2	14772	156.294160908181	1
2	14814	156.836241977398	1
2	14828	157.117545094726	1
2	14832	157.128400485605	1
2	14883	158.111572846362	1
2	14887	158.128400485605	1
2	14927	158.647712641076	1
2	14937	158.849140864608	1
2	14940	159.025882255524	1
2	14944	159.128400485605	1
2	14989	160.128400485605	1
2	15034	161.128400485605	1
2	15094	161.70842385416	1
2	15104	161.70942385416	1
2	15194	162.128400485605	1
2	15257	163.128400485605	1
2	15271	163.134442863085	1
2	15281	163.135442863085	1